<?xml version="1.0"?>
<VTKFile type="PolyData" version="0.1" byte_order="LittleEndian" header_type="UInt32" compressor="vtkZLibDataCompressor">
  <PolyData>
    <Piece NumberOfPoints="3588" NumberOfVerts="0" NumberOfLines="0" NumberOfStrips="0" NumberOfPolys="864">
      <PointData>
      </PointData>
      <CellData>
        <DataArray type="Float64" Name="electrons_temperature" format="ascii" RangeMin="58.249377624" RangeMax="165.39113397">
          165.30299577 162.20943599 158.31774029 153.36313443 147.37258079 140.58854294
          133.36391235 125.81067393 117.96052603 109.95155607 101.89993988 93.948692881
          86.319549635 79.24185235 72.890980219 67.420985451 62.868198447 58.744454557
          165.31006661 162.21280329 158.31884046 153.36349993 147.37271263 140.58858124
          133.36395166 125.81068999 117.9604086 109.95140205 101.89981941 93.948433457
          86.31900976 79.240531085 72.887077954 67.409172264 62.828885012 58.562528965
          165.31785337 162.2166648 158.32011167 153.36391864 147.37286344 140.58862568
          133.36399563 125.81070913 117.96028506 109.95124154 101.89969257 93.948161664
          86.318428535 79.238926345 72.880507263 67.380547075 62.721958863 58.317340279
          165.32642382 162.22114829 158.32160338 153.364405 147.37303833 140.58867799
          133.36404621 125.81073255 117.96013583 109.95102251 101.89948265 93.947565237
          86.316853232 79.234129623 72.863277036 67.322776991 62.569397006 58.249377624
          165.34124906 162.22960106 158.3245751 153.36542522 147.37343034 140.58880977
          133.36418174 125.81081904 117.95976808 109.95051769 101.89918805 93.946557056
          86.314329567 79.226409266 72.839603277 67.261538102 62.463150588 58.339123136
          165.3695173 162.24868163 158.33132113 153.36778835 147.37443153 140.58928964
          133.3646875 125.81124212 117.95935785 109.95003869 101.89939173 93.946025478
          86.312537662 79.219732122 72.819278895 67.217491003 62.418477556 58.565543974
          165.39113397 162.27689441 158.341554 153.37139986 147.37611485 140.59020333
          133.36565187 125.81209614 117.95923189 109.95021327 101.90072906 93.946813811
          86.312389331 79.215884715 72.80494187 67.190733172 62.419671797 58.849821618
          165.38422267 162.30578179 158.35276889 153.37546992 147.37833863 140.59160703
          133.36702868 125.81351511 117.95992068 109.95139238 101.90303207 93.948775302
          86.313973687 79.215093689 72.797368481 67.179591996 62.460453204 59.157193977
          165.34725661 162.32984403 158.36331221 153.37951141 147.38092088 140.593606
          133.36900504 125.8153809 117.96130199 109.95340048 101.90585836 93.9518151
          86.31745644 79.217411036 72.796273365 67.183376668 62.533373062 59.451380419
          165.28786566 162.3478449 158.37294027 153.38340558 147.38350121 140.5959587
          133.37140851 125.81732083 117.96295105 109.95604513 101.9093405 93.955770927
          86.322207417 79.221844037 72.800377681 67.200089072 62.628145517 59.724440428
          165.21559452 162.3599165 158.38124178 153.38667239 147.38573065 140.59839157
          133.37400699 125.81945873 117.96490466 109.95889244 101.91293107 93.960211944
          86.327756863 79.227506184 72.808254319 67.227392131 62.741109636 59.993006542
          165.13890734 162.36640406 158.38795058 153.38952408 147.38780349 140.60078808
          133.37660205 125.82147689 117.96689147 109.96175584 101.91635176 93.964847347
          86.333847222 79.23451446 72.820068881 67.264805971 62.868033498 60.248136362
          165.06569549 162.36820929 158.39299893 153.39184084 147.38964107 140.60305237
          133.3789828 125.82317792 117.96873816 109.96461706 101.91978254 93.969520707
          86.340130868 79.24263309 72.835445907 67.310867057 63.002866522 60.487799482
          165.00194009 162.36625862 158.39627141 153.39353004 147.39118664 140.60503787
          133.38107942 125.82479244 117.97047463 109.96727 101.92310941 93.974059284
          86.346462886 79.251726723 72.85417784 67.364460696 63.142159704 60.714028774
          164.95253252 162.36136671 158.39765655 153.39450615 147.39229872 140.60665975
          133.38295998 125.8262532 117.97194706 109.96966644 101.92629786 93.978624453
          86.353156566 79.261869788 72.8760521 67.4243691 63.282781238 60.926703009
          164.92082248 162.354172 158.39704431 153.39469417 147.39292926 140.60788272
          133.38450569 125.82761358 117.9733068 109.97177311 101.92930744 93.983213115
          86.360164953 79.272900512 72.900612388 67.48880787 63.421224842 61.124483244
          164.90782842 162.34488994 158.39431952 153.39403781 147.39305161 140.60869512
          133.38571364 125.82889703 117.97484144 109.97387259 101.93202904 93.98741818
          86.366866918 79.284418 72.927359072 67.55612532 63.555171875 61.307252087
          164.91453386 162.33317485 158.38927284 153.39247108 147.39263229 140.60907069
          133.38656821 125.8298323 117.97626626 109.97592824 101.93441981 93.991173073
          86.373210642 79.296349514 72.956011584 67.625376698 63.684480471 61.478622726
          164.93918367 162.31795243 158.38168532 153.39005279 147.391735 140.60899172
          133.38706522 125.83040944 117.9772771 109.9776132 101.93650807 93.994520485
          86.379290328 79.308921595 72.986798014 67.696629295 63.81043275 61.641218858
          164.97489098 162.29725503 158.37130114 153.38671744 147.39034821 140.60854048
          133.3872784 125.8306192 117.97788966 109.97905698 101.93833157 93.997347775
          86.38512661 79.322282408 73.019939285 67.770314791 63.934356473 61.796026613
          165.00864044 162.26823892 158.35787698 153.38233662 147.3884299 140.60781487
          133.38726758 125.83042376 117.97815098 109.98022438 101.93965555 93.999510593
          86.390592474 79.3366578 73.056230231 67.847359486 64.058702595 61.946465331
          165.01770734 162.22799146 158.34137956 153.37723002 147.38647666 140.60669153
          133.38637618 125.82952069 117.97831267 109.98159262 101.94083875 94.001067299
          86.395268743 79.352069318 73.096450902 67.929047843 64.186510541 62.103421205
          164.97246886 162.17795088 158.32305369 153.37195665 147.38466865 140.60525221
          133.38477334 125.82844158 117.97877141 109.98278591 101.9409817 94.001838285
          86.400099815 79.368315927 73.13860018 68.012656106 64.314549325 62.261074185
          164.85922582 162.12387125 158.30512029 153.3668206 147.38281083 140.60366817
          133.38303325 125.8278666 117.97961851 109.98323671 101.93986957 94.001892944
          86.405146887 79.383309636 73.176194689 68.086674788 64.426373748 62.395805015
          164.6857362 162.06956312 158.28912694 153.36217466 147.3813269 140.60245553
          133.38144813 125.82756938 117.9804026 109.98317242 101.93894055 94.002074171
          86.408810603 79.394004829 73.202827291 68.138539109 64.503519665 62.487507546
          164.48519128 162.01820894 158.27571822 153.35811641 147.38014235 140.60174328
          133.38027525 125.82733673 117.98103885 109.98310092 101.93866088 94.002549072
          86.410671933 79.400665545 73.219428879 68.169047926 64.547613839 62.539880832
          164.30395552 161.97500775 158.26557155 153.35484002 147.37881516 140.60101863
          133.37942774 125.82728353 117.98176342 109.98336082 101.93853033 94.002526453
          86.411159074 79.403720551 73.227994845 68.184571332 64.56870421 62.566258742
          164.15789597 161.94128952 158.25832832 153.3526689 147.37791732 140.60046778
          133.37876844 125.82722666 117.98234607 109.98378191 101.93859574 94.002136592
          86.410436094 79.403503562 73.230423832 68.190104224 64.573333493 62.569103151
          164.04835106 161.9161608 158.25321719 153.35123186 147.37733394 140.60010302
          133.37835783 125.82720027 117.98267546 109.9837085 101.9380941 94.001380995
          86.409309054 79.402199989 73.229613705 68.188300704 64.565339325 62.552066095
          163.97515532 161.89933514 158.24988007 153.35022931 147.37686803 140.59982421
          133.37808311 125.82713338 117.98266781 109.98299884 101.93696597 94.0002997
          86.407840113 79.400001364 73.226219065 68.180784296 64.548573341 62.527562463
          163.93555383 161.89039653 158.24806481 153.34953439 147.37644037 140.59950369
          133.37772806 125.82691455 117.98243642 109.98211794 101.93563274 93.998759017
          86.405660077 79.396680984 73.220493474 68.168272117 64.52372217 62.494748811
          163.92632848 161.88882993 158.24759529 153.3490708 147.37600796 140.59911099
          133.37726267 125.82652729 117.98197364 109.98102254 101.93415536 93.996982372
          86.402903262 79.392247388 73.212572634 68.151123441 64.490425155 62.450062218
          163.94489503 161.89410142 158.24834292 153.34879519 147.37554939 140.59863296
          133.37667444 125.82597017 117.98128623 109.97969766 101.93250803 93.994965118
          86.39958616 79.386746271 73.202624325 68.1297193 64.448644226 62.392961065
          163.99059239 161.90574246 158.25021621 153.34868538 147.37505611 140.59806687
          133.37596165 125.82525184 117.98039073 109.97814522 101.93059401 93.992503821
          86.395599898 79.380211378 73.190758509 68.104319661 64.398102113 62.322278187
          164.06391132 161.92335725 158.253138 153.34872711 147.37452095 140.59739138
          133.3750679 125.82429003 117.97923793 109.97634972 101.92840291 93.989594203
          86.390913262 79.372666562 73.177085561 68.074988524 64.338132538 62.235864163
          164.16558867 161.94578982 158.25673006 153.34889892 147.37392934 140.59659526
          133.37398162 125.82307826 117.9778743 109.97437705 101.92596292 93.986246434
          86.385503753 79.364041566 73.161541287 68.04173095 64.2679759 62.130785464
          164.29299242 161.97170741 158.26075497 153.34925854 147.37332752 140.59568176
          133.37272981 125.82167205 117.97633243 109.97221621 101.92333356 93.982556759
          86.379383112 79.354244592 73.143969264 68.004626033 64.187162039 62.003417193
          164.44232261 162.00080182 158.26555574 153.34984729 147.37258866 140.59432828
          133.37109364 125.82004427 117.9746061 109.96990538 101.92057387 93.978550061
          86.372570225 79.343261199 73.1242345 67.963702117 64.095718168 61.850374035
          164.60721526 162.03225348 158.27130021 153.35071846 147.3717721 140.59261283
          133.36908489 125.81802177 117.97237145 109.96726675 101.91773586 93.974298238
          86.365128873 79.331285622 73.102514252 67.919146419 63.99430002 61.667782849
          164.77726147 162.06509451 158.27797271 153.35195394 147.37104801 140.59093431
          133.36709214 125.81579613 117.96972551 109.96406686 101.91444317 93.969751961
          86.357070181 79.318235782 73.078711803 67.870937235 63.883529622 61.449875076
          164.94267946 162.09927078 158.28578556 153.35370533 147.37070527 140.58962689
          133.36532764 125.8136207 117.96708381 109.96066322 101.91065258 93.964865737
          86.348824487 79.304182254 73.052279471 67.818283241 63.763379494 61.188988419
          165.0855561 162.13377864 158.29480802 153.35606951 147.37080446 140.58875122
          133.3641351 125.81198277 117.96477953 109.95744051 101.90670535 93.960018402
          86.341099665 79.29003764 73.023007073 67.759582295 63.633407486 60.875115145
          165.1891572 162.16491159 158.30383279 153.35867863 147.37121252 140.58835822
          133.36371866 125.81103761 117.96286812 109.95487769 101.90348368 93.955609708
          86.333844724 79.276241407 72.992743344 67.696220973 63.498695094 60.520092024
          165.24705617 162.18599632 158.31034859 153.36071882 147.37174935 140.58833641
          133.36369862 125.81067496 117.96157546 109.95311865 101.90147364 93.952162158
          86.327498099 79.263031725 72.960241977 67.627605222 63.359046608 60.127572674
          165.2707941 162.19555443 158.31339433 153.36173302 147.37209845 140.58841919
          133.36378305 125.81064567 117.96103805 109.95230087 101.90059941 93.950274884
          86.323320789 79.252699706 72.9290141 67.549882888 63.210757116 59.722267245
          165.28115804 162.19981941 158.31471548 153.36215546 147.37224091 140.58845385
          133.36381851 125.81064785 117.9608729 109.95204128 101.90034082 93.949602041
          86.321549209 79.247259876 72.908860783 67.482022911 63.0552711 59.329864309
          165.28930968 162.2032851 158.31578941 153.36249781 147.37235687 140.58848238
          133.36384772 125.81065284 117.96075368 109.95186855 101.9001927 93.949258211
          86.32075701 79.244898681 72.90002987 67.447057579 62.946132588 59.019540263
          165.29632896 162.20637608 158.31675762 153.36281006 147.37246508 140.58851054
          133.36387777 125.81066131 117.96064048 109.95171004 101.9000623 93.948962775
          86.320117809 79.243251769 72.895066621 67.432450845 62.898909964 58.846420032
        </DataArray>
        <DataArray type="Float64" Name="electrons_density" format="ascii" RangeMin="1.5831780501e+19" RangeMax="2.0512463492e+19">
          1.9968154955e+19 1.9876397595e+19 1.9754523204e+19 1.9624441733e+19 1.9483826836e+19 1.9327942037e+19
          1.9151089995e+19 1.8951474193e+19 1.8735344604e+19 1.8509462611e+19 1.8296856712e+19 1.8108148925e+19
          1.7987287016e+19 1.7975996276e+19 1.8130822865e+19 1.8546543665e+19 1.9322905548e+19 2.0512463492e+19
          1.9967300228e+19 1.9873389378e+19 1.9750009072e+19 1.9619599499e+19 1.9479095953e+19 1.9323112526e+19
          1.9147160894e+19 1.8947626527e+19 1.8731764092e+19 1.8505961445e+19 1.8293839499e+19 1.8105833189e+19
          1.7986014446e+19 1.7976568156e+19 1.8136811606e+19 1.8563376485e+19 1.9356092166e+19 2.0440030619e+19
          1.9966345646e+19 1.9870197281e+19 1.9745043506e+19 1.9614031776e+19 1.9473612112e+19 1.9317420648e+19
          1.9142187852e+19 1.8943042734e+19 1.8726993135e+19 1.8501278097e+19 1.828942684e+19 1.810271977e+19
          1.7984435935e+19 1.7977992182e+19 1.8148309789e+19 1.8599516312e+19 1.9341341008e+19 1.97768403e+19
          1.9965961986e+19 1.9867605688e+19 1.9740151818e+19 1.960795589e+19 1.9467387328e+19 1.9311016782e+19
          1.9136063224e+19 1.8937979893e+19 1.8721338824e+19 1.849574061e+19 1.8283436073e+19 1.8098553321e+19
          1.7982720671e+19 1.7980544219e+19 1.8160351894e+19 1.8604739264e+19 1.9100310827e+19 1.921192537e+19
          1.9965058793e+19 1.9864164812e+19 1.9732836027e+19 1.9597496012e+19 1.9455725546e+19 1.9299321739e+19
          1.9124018616e+19 1.8928134384e+19 1.8712761877e+19 1.8489844126e+19 1.8279068923e+19 1.8098474079e+19
          1.7987591047e+19 1.7994170349e+19 1.8175612088e+19 1.8523797502e+19 1.8782636461e+19 1.8866593716e+19
          1.9964899545e+19 1.9863307518e+19 1.9726797026e+19 1.9584235876e+19 1.9438308212e+19 1.9282324856e+19
          1.91082867e+19 1.891498101e+19 1.8703879719e+19 1.8485914958e+19 1.8279503054e+19 1.8105877193e+19
          1.8004011213e+19 1.8016712822e+19 1.8165469195e+19 1.8383534493e+19 1.8529365399e+19 1.860921847e+19
          1.9967399298e+19 1.9869674344e+19 1.973018012e+19 1.9577935804e+19 1.9422611116e+19 1.9263502744e+19
          1.9092101789e+19 1.8902216458e+19 1.8696067468e+19 1.8485150407e+19 1.8284707495e+19 1.8117630144e+19
          1.8020677037e+19 1.802148227e+19 1.8111443471e+19 1.822684153e+19 1.8310791345e+19 1.8364879396e+19
          1.9970594687e+19 1.9880085264e+19 1.9741432019e+19 1.9580839617e+19 1.9413246409e+19 1.9244648182e+19
          1.9071164221e+19 1.8883868621e+19 1.8680213834e+19 1.8472785348e+19 1.8275662524e+19 1.8109462665e+19
          1.8004327745e+19 1.7971778994e+19 1.7992642297e+19 1.8026175124e+19 1.8050809143e+19 1.8067319474e+19
          1.9971540296e+19 1.9884834442e+19 1.9747470905e+19 1.958144234e+19 1.9402620644e+19 1.9220727321e+19
          1.9038692714e+19 1.8848610759e+19 1.8644099446e+19 1.843502696e+19 1.823535711e+19 1.8061605301e+19
          1.7933891252e+19 1.7854694172e+19 1.7806742561e+19 1.7768637332e+19 1.7735387329e+19 1.7713963559e+19
          1.9971671772e+19 1.9886332705e+19 1.975025634e+19 1.9580468481e+19 1.9391063442e+19 1.9195420412e+19
          1.9001428543e+19 1.8803063092e+19 1.8594681819e+19 1.8382605524e+19 1.8175928186e+19 1.7986727429e+19
          1.7828534053e+19 1.7699938303e+19 1.7588309764e+19 1.7485695649e+19 1.7398374731e+19 1.7342650197e+19
          1.9971947031e+19 1.9887858675e+19 1.9752620572e+19 1.9579396915e+19 1.9382350854e+19 1.9176821911e+19
          1.8972375511e+19 1.876526539e+19 1.8549602826e+19 1.8330217106e+19 1.8112807077e+19 1.7903827522e+19
          1.7711748892e+19 1.7534870533e+19 1.736677584e+19 1.7209435845e+19 1.7078064319e+19 1.6995950824e+19
          1.9972384249e+19 1.9889865365e+19 1.9756984628e+19 1.9584179996e+19 1.9383115048e+19 1.9169899498e+19
          1.8956422237e+19 1.8740221099e+19 1.8515820698e+19 1.8285869232e+19 1.8053833753e+19 1.7823132434e+19
          1.7597698308e+19 1.7377109255e+19 1.7161645652e+19 1.6961052419e+19 1.6796632764e+19 1.6695431273e+19
          1.9973079553e+19 1.9892750468e+19 1.9763181899e+19 1.9592863436e+19 1.9390981876e+19 1.9172944816e+19
          1.8951468966e+19 1.8725874868e+19 1.8492778583e+19 1.8251924487e+19 1.8003453381e+19 1.7749541752e+19
          1.74929094e+19 1.7235487585e+19 1.6982648369e+19 1.6749692927e+19 1.6561654193e+19 1.6447337737e+19
          1.9973868068e+19 1.9895883726e+19 1.9769853572e+19 1.9602921616e+19 1.9402377771e+19 1.9181815572e+19
          1.8954558002e+19 1.8721836188e+19 1.8479996062e+19 1.8227209694e+19 1.7962051259e+19 1.7685363628e+19
          1.7401152688e+19 1.7114506167e+19 1.6833970759e+19 1.6578321503e+19 1.6374645015e+19 1.6252035615e+19
          1.9974572615e+19 1.9898671193e+19 1.9775833385e+19 1.9612316523e+19 1.9414018029e+19 1.9193226108e+19
          1.896305902e+19 1.8724336198e+19 1.8474392945e+19 1.8211544316e+19 1.7932152917e+19 1.7636425304e+19
          1.7329600043e+19 1.7019606182e+19 1.6718226024e+19 1.6446624068e+19 1.6232614324e+19 1.6104785269e+19
          1.9975125125e+19 1.9900884144e+19 1.9780683809e+19 1.9620313387e+19 1.9424869132e+19 1.9205596305e+19
          1.8974833663e+19 1.8732808861e+19 1.8476242838e+19 1.8204924652e+19 1.7914900315e+19 1.7604873787e+19
          1.7280475725e+19 1.6951688927e+19 1.6634128683e+19 1.635093612e+19 1.6129882543e+19 1.5998707602e+19
          1.9975513535e+19 1.9902449014e+19 1.9784162849e+19 1.9626375991e+19 1.9434173302e+19 1.9218163825e+19
          1.898965783e+19 1.8748352714e+19 1.848878084e+19 1.8210162191e+19 1.790990985e+19 1.7586970525e+19
          1.7248001237e+19 1.6904807354e+19 1.6574924192e+19 1.6282535727e+19 1.6055488953e+19 1.5921358224e+19
          1.9975679511e+19 1.990299959e+19 1.9785407955e+19 1.9629115275e+19 1.9440169384e+19 1.922877335e+19
          1.9004521507e+19 1.8766036599e+19 1.8507067521e+19 1.8224465311e+19 1.7915792715e+19 1.7582418606e+19
          1.7231940809e+19 1.6877807602e+19 1.6539109792e+19 1.6240460116e+19 1.6009367297e+19 1.5873154863e+19
          1.9975456901e+19 1.9902119965e+19 1.9783992224e+19 1.9628636357e+19 1.9443094545e+19 1.9237114883e+19
          1.9018747039e+19 1.8784738294e+19 1.8527370546e+19 1.8242988654e+19 1.7929664564e+19 1.7589280353e+19
          1.7230285768e+19 1.6868204218e+19 1.6523600818e+19 1.6221433604e+19 1.5988798011e+19 1.5852039718e+19
          1.9974791144e+19 1.9899659679e+19 1.9779793268e+19 1.9625212913e+19 1.9444283638e+19 1.9246016187e+19
          1.9035881879e+19 1.8807776975e+19 1.8552667004e+19 1.8267651619e+19 1.7951039544e+19 1.7604786492e+19
          1.7238845697e+19 1.6869235153e+19 1.6518407661e+19 1.6212547109e+19 1.5977910927e+19 1.5840363507e+19
          1.9973901875e+19 1.9896246755e+19 1.9773962348e+19 1.9620863242e+19 1.9447512568e+19 1.9261338312e+19
          1.9061962754e+19 1.8839182331e+19 1.8584727253e+19 1.8297948627e+19 1.7977852136e+19 1.7626802025e+19
          1.7255578605e+19 1.6879690342e+19 1.6522272478e+19 1.6210797553e+19 1.5971853748e+19 1.5831780501e+19
          1.9972904057e+19 1.9892884693e+19 1.9771056028e+19 1.9625081578e+19 1.9464194773e+19 1.9290454028e+19
          1.9099160065e+19 1.8879350584e+19 1.8625560549e+19 1.8338517673e+19 1.8015379121e+19 1.7657153632e+19
          1.7278443492e+19 1.6899800215e+19 1.6540104723e+19 1.622462872e+19 1.5981866194e+19 1.5839214199e+19
          1.9973665032e+19 1.9896872416e+19 1.9784285555e+19 1.9652371497e+19 1.9504804947e+19 1.9339202515e+19
          1.9150686432e+19 1.8930075972e+19 1.867475621e+19 1.8385190426e+19 1.805700608e+19 1.7692936283e+19
          1.73090822e+19 1.6927728449e+19 1.656639733e+19 1.6248775202e+19 1.6004372829e+19 1.5860761088e+19
          1.9978411811e+19 1.9915370531e+19 1.9820574676e+19 1.9703472679e+19 1.9563780631e+19 1.9399894081e+19
          1.9209815485e+19 1.8986069046e+19 1.8726231793e+19 1.8430187055e+19 1.8094220972e+19 1.7726069104e+19
          1.7340585446e+19 1.6954275414e+19 1.6587984824e+19 1.6267034901e+19 1.6020645308e+19 1.5876061273e+19
          1.9984568952e+19 1.9938106873e+19 1.9862076599e+19 1.9758370347e+19 1.9623967452e+19 1.9458404833e+19
          1.9263420058e+19 1.9034424777e+19 1.8767639736e+19 1.8463519487e+19 1.8120774661e+19 1.774812504e+19
          1.7358729144e+19 1.6966423381e+19 1.6595144178e+19 1.6272010595e+19 1.6024879252e+19 1.5880303593e+19
          1.9988192589e+19 1.9951901646e+19 1.98887755e+19 1.9795842536e+19 1.9667398904e+19 1.950135057e+19
          1.930124141e+19 1.9065774977e+19 1.8791744595e+19 1.8480584128e+19 1.813398659e+19 1.7757672072e+19
          1.7364024096e+19 1.6970381171e+19 1.6598028621e+19 1.6274417286e+19 1.6028649987e+19 1.5885490678e+19
          1.9989161531e+19 1.995597447e+19 1.989777832e+19 1.9809764288e+19 1.9685025506e+19 1.9520560506e+19
          1.9319341442e+19 1.9080797866e+19 1.8802377964e+19 1.8485800654e+19 1.8134486548e+19 1.7755272725e+19
          1.7360879682e+19 1.6968953932e+19 1.6599029014e+19 1.6278428175e+19 1.6036475798e+19 1.5895680392e+19
          1.9989106647e+19 1.9955859564e+19 1.989811183e+19 1.9811125668e+19 1.968744322e+19 1.9523282104e+19
          1.9321344205e+19 1.908167796e+19 1.8802024705e+19 1.8484003422e+19 1.8128796042e+19 1.7743425714e+19
          1.7344211988e+19 1.6950680751e+19 1.658431403e+19 1.6269868887e+19 1.6032621662e+19 1.5894614635e+19
          1.9988720902e+19 1.9954400695e+19 1.9895384029e+19 1.9807469488e+19 1.9682978275e+19 1.9517787682e+19
          1.9314568271e+19 1.9073409889e+19 1.8792223211e+19 1.8472480354e+19 1.8114990233e+19 1.7727608056e+19
          1.7327679735e+19 1.6934723837e+19 1.6569840315e+19 1.6256948365e+19 1.6020691994e+19 1.5883670991e+19
          1.9988251121e+19 1.9952588098e+19 1.9891727826e+19 1.9801968778e+19 1.9675821653e+19 1.9509135057e+19
          1.9304257719e+19 1.9060747672e+19 1.8776771089e+19 1.8454734171e+19 1.8098028189e+19 1.7714545105e+19
          1.7318555087e+19 1.6928615031e+19 1.6566274616e+19 1.6255856258e+19 1.6021591554e+19 1.5885780471e+19
          1.9987821718e+19 1.9950911452e+19 1.9888234274e+19 1.9796454601e+19 1.9668308422e+19 1.9499777815e+19
          1.9293320897e+19 1.9048590906e+19 1.8763982618e+19 1.8442224938e+19 1.8086943337e+19 1.7706562573e+19
          1.7315325493e+19 1.6930469871e+19 1.6572627896e+19 1.6265966435e+19 1.6034491056e+19 1.5900165453e+19
          1.9987502718e+19 1.9949660633e+19 1.9885573316e+19 1.9792110162e+19 1.966219507e+19 1.9492095605e+19
          1.9284636043e+19 1.9039791096e+19 1.8756233874e+19 1.8436843461e+19 1.8085194328e+19 1.7709450382e+19
          1.7323361643e+19 1.6943583483e+19 1.659027024e+19 1.6287268861e+19 1.6058398845e+19 1.5925515059e+19
          1.9987336649e+19 1.9949002673e+19 1.9884119316e+19 1.9789572393e+19 1.9658393528e+19 1.9487239862e+19
          1.9279472759e+19 1.9035520204e+19 1.8754425355e+19 1.8439309272e+19 1.8093803635e+19 1.7724924821e+19
          1.734499726e+19 1.6970655704e+19 1.6622092135e+19 1.6322763965e+19 1.6096376302e+19 1.596481218e+19
          1.9987354455e+19 1.9949054719e+19 1.9884071575e+19 1.9789049565e+19 1.9657072327e+19 1.948536042e+19
          1.9277986788e+19 1.9035836252e+19 1.8758169644e+19 1.8448543414e+19 1.8110722352e+19 1.7750843294e+19
          1.7380005378e+19 1.701375984e+19 1.667198826e+19 1.6377932314e+19 1.6155016061e+19 1.6025280981e+19
          1.998773335e+19 1.9950399066e+19 1.9885926564e+19 1.9790429379e+19 1.9657507577e+19 1.9485056331e+19
          1.9278058513e+19 1.9038117818e+19 1.8765003403e+19 1.8462963236e+19 1.8135829006e+19 1.7788665501e+19
          1.7431077313e+19 1.7076972628e+19 1.674506569e+19 1.6458210694e+19 1.6239998659e+19 1.6112724172e+19
          1.998819126e+19 1.9952157914e+19 1.9888698357e+19 1.9792936849e+19 1.9659143433e+19 1.9486049526e+19
          1.9279418404e+19 1.9042047168e+19 1.8774920049e+19 1.8482636227e+19 1.816885432e+19 1.7838383602e+19
          1.7499119085e+19 1.7162297189e+19 1.6844495212e+19 1.656781122e+19 1.6356279894e+19 1.6232510751e+19
          1.9988477393e+19 1.9953314552e+19 1.9891121031e+19 1.9796057253e+19 1.9662237725e+19 1.9489315299e+19
          1.9283186524e+19 1.9048405857e+19 1.8787761524e+19 1.8506098723e+19 1.8208131623e+19 1.7898492187e+19
          1.7582829498e+19 1.7269344693e+19 1.6971677268e+19 1.6710318151e+19 1.6509127451e+19 1.6391006134e+19
          1.9988959928e+19 1.9954861975e+19 1.9893432773e+19 1.97980066e+19 1.9662829223e+19 1.9489374395e+19
          1.928538843e+19 1.9056267786e+19 1.8804121239e+19 1.8533766761e+19 1.8252460192e+19 1.7966394351e+19
          1.7679671791e+19 1.7396594657e+19 1.7126783288e+19 1.6887857818e+19 1.6702478562e+19 1.6593216401e+19
          1.9989880053e+19 1.9957740449e+19 1.9896950147e+19 1.9799984619e+19 1.9662355499e+19 1.9487945786e+19
          1.928706624e+19 1.9064499313e+19 1.8821500579e+19 1.856495879e+19 1.8302505305e+19 1.804148155e+19
          1.7788650726e+19 1.7544656197e+19 1.731168483e+19 1.7102690341e+19 1.6939385872e+19 1.6843019085e+19
          1.9991170054e+19 1.9961253874e+19 1.9900180104e+19 1.9800704001e+19 1.9660842335e+19 1.9487728509e+19
          1.9291561168e+19 1.9075053965e+19 1.883973694e+19 1.8595117784e+19 1.8351233906e+19 1.8116393434e+19
          1.7901855011e+19 1.7706935056e+19 1.7522226178e+19 1.7352174349e+19 1.7218210149e+19 1.7140178331e+19
          1.9991092934e+19 1.9958734236e+19 1.9892099592e+19 1.9787746599e+19 1.964704408e+19 1.9477095948e+19
          1.9285733766e+19 1.9076158859e+19 1.8848584517e+19 1.8612840185e+19 1.8383522094e+19 1.8172722697e+19
          1.799880597e+19 1.7860878972e+19 1.7736358214e+19 1.7613479382e+19 1.7512088497e+19 1.7455787662e+19
          1.9985850953e+19 1.9940100963e+19 1.9859727195e+19 1.9747896498e+19 1.9607362785e+19 1.9441747608e+19
          1.9255852702e+19 1.9052314681e+19 1.8830233011e+19 1.8598800687e+19 1.8379485552e+19 1.818613423e+19
          1.8044284006e+19 1.7963279068e+19 1.7912622644e+19 1.7847169579e+19 1.7770929226e+19 1.7730144572e+19
          1.9977837273e+19 1.9912594008e+19 1.9814912462e+19 1.9695313922e+19 1.955495652e+19 1.93945907e+19
          1.9213240108e+19 1.9011544218e+19 1.8792560392e+19 1.8563717023e+19 1.8349271009e+19 1.8161929918e+19
          1.8035745791e+19 1.7997493265e+19 1.8028471891e+19 1.8052681664e+19 1.800074744e+19 1.7958521103e+19
          1.9972800917e+19 1.9893202144e+19 1.978211976e+19 1.965636004e+19 1.9515663891e+19 1.9358376e+19
          1.9178717604e+19 1.897733938e+19 1.8759571317e+19 1.853248372e+19 1.8319359613e+19 1.813188512e+19
          1.8010469613e+19 1.799403907e+19 1.8094657708e+19 1.8258079804e+19 1.8282011886e+19 1.8191662544e+19
          1.9971571075e+19 1.9887222612e+19 1.977050098e+19 1.964156086e+19 1.9500433392e+19 1.9343799592e+19
          1.9164127905e+19 1.8963008327e+19 1.8744342697e+19 1.8517107313e+19 1.8303214209e+19 1.8114432623e+19
          1.7993859882e+19 1.7983242996e+19 1.8123726667e+19 1.8434712432e+19 1.8701599792e+19 1.8557030778e+19
          1.9971426999e+19 1.9885459129e+19 1.976672679e+19 1.9636790893e+19 1.9495673312e+19 1.9339390785e+19
          1.9160063544e+19 1.8959586528e+19 1.8741089682e+19 1.8514269443e+19 1.830028509e+19 1.8110806737e+19
          1.7989173273e+19 1.7978124742e+19 1.8130276742e+19 1.8520219123e+19 1.9125407023e+19 1.9309978617e+19
          1.9970177529e+19 1.9882533683e+19 1.9762877122e+19 1.9632832178e+19 1.9491896014e+19 1.9335808785e+19
          1.91571883e+19 1.8957274109e+19 1.8739601778e+19 1.8513300324e+19 1.8299754648e+19 1.8110422894e+19
          1.7988527222e+19 1.7976278728e+19 1.8127162921e+19 1.8534037742e+19 1.9284009978e+19 2.0244673051e+19
          1.9969074099e+19 1.9879417993e+19 1.9758790034e+19 1.9628798596e+19 1.94880425e+19 1.9332091712e+19
          1.9154314336e+19 1.8954648922e+19 1.8737873497e+19 1.8511850788e+19 1.8298746774e+19 1.8109660731e+19
          1.7988101007e+19 1.7975869529e+19 1.8127553703e+19 1.853755164e+19 1.9304110938e+19 2.0483283141e+19
        </DataArray>
        <DataArray type="Float64" Name="ions_0_temperature" format="ascii" RangeMin="55.168364924" RangeMax="168.06069993">
          167.41448403 161.79510017 155.39307894 148.88160232 142.21723835 135.50083342
          128.80544047 122.0420556 115.10624467 107.9634466 100.76003688 93.556259617
          86.424022403 79.576994345 72.972126546 66.690893918 60.786398114 55.176406264
          167.51169371 161.88678772 155.47945977 148.96050011 142.28608515 135.56142331
          128.85721772 122.08554453 115.14250435 107.99139146 100.78223111 93.570493275
          86.433088144 79.579635316 72.959509028 66.646041285 60.690735932 55.168364924
          167.61296383 161.98769824 155.57709379 149.04962084 142.36302109 135.62752916