<?xml version="1.0"?>
<VTKFile type="PolyData" version="0.1" byte_order="LittleEndian" header_type="UInt32" compressor="vtkZLibDataCompressor">
  <PolyData>
    <Piece NumberOfPoints="3588" NumberOfVerts="0" NumberOfLines="0" NumberOfStrips="0" NumberOfPolys="864">
      <PointData>
      </PointData>
      <CellData>
        <DataArray type="Float64" Name="electrons_temperature" format="ascii" RangeMin="0.92975400459" RangeMax="46.408927279">
          2.2578213737 2.9632248796 3.7321855788 4.6122777622 5.5276810596 6.4103197327
          7.2590691329 8.0805648788 8.8831572634 9.7009491814 10.765214836 12.125667859
          13.521191491 14.965079966 16.503191311 18.710021568 22.841950072 28.683407711
          46.408927279 45.696930866 42.027687541 37.88020266 34.30773123 30.375745106
          26.23948016 22.257151677 18.758009591 16.027560531 13.57802505 11.802759378
          10.019002369 8.3038241573 6.9806406074 5.9441111168 5.264324574 4.6827802168
          2.2559997 2.9579131302 3.7326246096 4.615696319 5.529475893 6.4109321105
          7.2582985545 8.0777670102 8.8764874878 9.6932124365 10.758290251 12.121555328
          13.518653224 14.963935277 16.503008961 18.709508209 22.845798491 28.683195667
          44.503173959 45.095645456 41.713578185 37.665039377 34.1330867 30.248811721
          26.116600475 22.147292943 18.642915894 15.934664676 13.4975163 11.754568104
          9.9753170359 8.2587037026 6.9239520848 5.8930653579 5.2107302112 4.6256192338
          2.2631592894 2.9613739439 3.740090122 4.6254208652 5.5370054685 6.416314967
          7.261463752 8.078287115 8.872629537 9.6867936545 10.751886558 12.118486267
          13.516914933 14.963393112 16.503049365 18.708227958 22.846553006 28.651931183
          42.464803203 44.289804255 41.414289368 37.452129796 33.954871872 30.11803412
          25.990219937 22.035805142 18.527269945 15.844014888 13.423216641 11.709929715
          9.9335077686 8.2140058578 6.8635954873 5.8380367552 5.1496397735 4.5629177742
          2.2789348636 2.9730819116 3.7535598523 4.6405966515 5.5495753016 6.4258332526
          7.2680397503 8.0817439428 8.8713655137 9.6813679948 10.745722003 12.116211857
          13.515717612 14.96325106 16.503247021 18.705368689 22.836414038 28.543255491
          40.501275646 43.221925705 41.064893674 37.211823494 33.756794295 29.976746741
          25.856615376 21.9207287 18.409994033 15.754125519 13.353573299 11.668712218
          9.8941424755 8.1700221577 6.8088870322 5.7906724918 5.0840518162 4.5020105514
          2.3030956133 2.9928519972 3.7722332008 4.6605392032 5.5667013694 6.4390681935
          7.2776828022 8.087866457 8.8724887202 9.6765418505 10.73923782 12.114208079
          13.514537754 14.963266186 16.501707182 18.682701459 22.76155814 28.235837567
          38.491631824 41.782611051 40.490009908 36.895398922 33.521447682 29.819302136
          25.713010341 21.800770193 18.290165448 15.664778618 13.285464737 11.624434009
          9.8509821409 8.1208741996 6.7470131712 5.733784339 5.0156757836 4.4441780783
          2.3360182364 3.0213060385 3.7960874797 4.6859446592 5.5896287154 6.4577335674
          7.2926836323 8.0993627068 8.8775946399 9.6677807074 10.722800539 12.103365569
          13.496179928 14.931918137 16.447005655 18.580357195 22.540049293 27.637353676
          36.398715342 40.029737879 39.498931166 36.413253283 33.217650449 29.637444854
          25.556375056 21.674913528 18.167274183 15.576803522 13.218593946 11.574861397
          9.8025673653 8.0659791219 6.6809807654 5.675967294 4.9435851093 4.3923554802
          2.3895743325 3.0718206461 3.834988795 4.7280175329 5.6317793608 6.4890209431
          7.3108080889 8.1012978656 8.8555225484 9.6090505994 10.653389866 12.034862028
          13.413443582 14.836902797 16.329607828 18.400476941 22.166454045 26.865675974
          34.323570671 38.239369616 38.172369905 35.743365325 32.82200595 29.424420445
          25.384175699 21.542099286 18.040222795 15.488567291 13.153581736 11.526529313
          9.7553381141 8.0103892839 6.6206452555 5.6243067857 4.8649543171 4.3480092713
          2.4513879906 3.1084784854 3.8452020276 4.7338656301 5.6397900315 6.4916425478
          7.2981188185 8.0695499509 8.8033836132 9.5293395412 10.557002626 11.930831136
          13.291109408 14.696847832 16.152178276 18.14549746 21.702427305 26.139816307
          32.268389102 36.471135191 36.706734982 34.934946148 32.324934466 29.170131885
          25.190045382 21.397821968 17.905016584 15.398629401 13.086451659 11.481329024
          9.711807093 7.9549998267 6.5609093609 5.5655370235 4.7884816059 4.3087549001
          2.5160674468 3.1424910728 3.8569459113 4.7269142483 5.6271186443 6.4729631991
          7.2601939474 8.0158286252 8.7333348887 9.4331363481 10.434115306 11.791433034
          13.131213241 14.506721516 15.910971191 17.830848466 21.215799067 25.352990301
          30.228966906 34.650336082 35.199142249 33.992886969 31.696922221 28.837156446
          24.947573087 21.226423124 17.752262854 15.305370756 13.020371441 11.438938666
          9.6713613445 7.9004293773 6.5022311647 5.5103731049 4.7250457799 4.2655168161
          2.5969130332 3.1950439461 3.8814117739 4.7215198212 5.5954666138 6.411665213
          7.1760621305 7.9143482939 8.6100308825 9.2870172719 10.260636738 11.594398668
          12.918281562 14.265877559 15.614664885 17.451110908 20.643120517 24.351961463
          28.228638138 32.753858716 33.700233737 32.919249021 30.963747414 28.413144368
          24.637792021 21.011360046 17.572468093 15.205388339 12.957452828 11.395514799
          9.6279189895 7.8461464285 6.4486291007 5.4579932 4.6706621311 4.2210881258
          2.6201513864 3.2019409987 3.8665233466 4.6784467805 5.516687892 6.2980942563
          7.039961175 7.7497524347 8.4200350059 9.0825382834 10.033723012 11.341644062
          12.638697532 13.941243115 15.224558318 16.959729656 19.95010075 23.236872115
          26.384849706 30.884940756 32.209584323 31.738013322 30.189365422 27.926052278
          24.277941698 20.755231355 17.366764468 15.100044219 12.898298437 11.353547587
          9.5876063637 7.7967757385 6.4005978121 5.4090870976 4.6214122159 4.1723580479
          2.6448247905 3.1929621322 3.8185759068 4.5907946805 5.3912926271 6.1400337352
          6.8525615243 7.5319423039 8.1782265879 8.8235570745 9.75547678 11.033115966
          12.291398132 13.537809266 14.754254029 16.403587326 19.226064053 22.137394267
          24.794786672 29.136645562 30.708037524 30.5252998 29.413410832 27.396194453
          23.888445595 20.464941227 17.141759278 14.99188151 12.848322264 11.317013822
          9.5527729888 7.7543767678 6.3566559295 5.3619459443 4.5776370313 4.1227735578
          2.6602140614 3.1548223752 3.7368135007 4.461476715 5.223514337 5.9402337354
          6.6195227197 7.2673722303 7.888004642 8.515155455 9.4263742197 10.66617752
          11.878057886 13.068916123 14.229321222 15.812204839 18.450024069 21.016529239
          23.313430404 27.392263753 29.152254096 29.358847818 28.642907492 26.844334078
          23.489022119 20.147985663 16.912356428 14.887611166 12.804097756 11.284147291
          9.519930576 7.7109418781 6.3147041093 5.3159941804 4.5374590935 4.0703253053
          2.5946888591 3.0578673294 3.6027193836 4.2835881973 5.0048885469 5.6811522193
          6.3226546201 6.9405698495 7.5388010569 8.1482235771 9.032834969 10.227440584
          11.388215572 12.522192531 13.62491752 15.129869974 17.550311183 19.802208078
          21.802010137 25.588236249 27.576406779 28.245652059 27.862315717 26.298275263
          23.101013583 19.832717074 16.708474589 14.802010394 12.762664019 11.251943641
          9.4898511045 7.6691701739 6.2758883823 5.2723069992 4.4998179189 4.0161385805
          2.5098626681 2.9395544966 3.4313092932 4.052579503 4.7200333724 5.3530885206
          5.9594709377 6.5480195978 7.1206252152 7.7074601962 8.5633951714 9.7085089998
          10.810024436 11.88087502 12.929350427 14.349035087 16.555215146 18.531602561
          20.285187478 23.815142098 26.080490905 27.161955725 27.093965361 25.799885582
          22.739882444 19.556339047 16.551146118 14.739005201 12.725921917 11.219501184
          9.4609275203 7.6313305243 6.2385334242 5.2292431583 4.4670149989 3.9650884551
          2.4082115168 2.782139162 3.2132621613 3.762926593 4.3714736688 4.9703037328
          5.5478388887 6.1076602227 6.6532607189 7.214318332 8.0361058014 9.1277405257
          10.171138213 11.185651862 12.178920108 13.502199003 15.514500255 17.264897868
          18.830391115 22.123221974 24.646985405 26.102698427 26.383469381 25.375052612
          22.428970867 19.340950464 16.439887782 14.689714056 12.691829381 11.189589712
          9.4344015433 7.5927046193 6.2027637773 5.1892408871 4.4373644209 3.9227372852
          2.2253934029 2.561213573 2.9490137431 3.4450512408 4.004195955 4.561347846
          5.1028029186 5.6292796761 6.1417487981 6.6710296599 7.4533465987 8.4887561415
          9.4768576137 10.432790095 11.351806728 12.577334445 14.420638127 15.98290444
          17.393169645 20.462752005 23.225005206 25.109131523 25.778525225 25.025015755
          22.187027769 19.185182875 16.360527654 14.645313297 12.659416185 11.161188496
          9.4074679779 7.556095149 6.1711130133 5.1520163493 4.4116100413 3.8870157331
          2.0104362016 2.3118688026 2.6632166635 3.1158237101 3.6196493124 4.1171919105
          4.607804988 5.0900310543 5.563368822 6.0586393433 6.7971776675 7.7688090449
          8.6906999074 9.5729335676 10.414705045 11.552340281 13.24378038 14.643820757
          15.935374961 18.800477269 21.854214174 24.249075635 25.2952435 24.750236837
          22.007091366 19.074263428 16.298503652 14.60282324 12.624035795 11.129892126
          9.3814197587 7.5207512309 6.1416704538 5.1172191751 4.3886196844 3.8568503938
          1.7973251586 2.049987396 2.3510033719 2.7446319668 3.1822190701 3.6194707153
          4.0533999074 4.4862471624 4.9213026669 5.3832812174 6.0763524924 6.9794798516
          7.8290906616 8.6355482791 9.4120561033 10.484320766 12.052359425 13.319694447
          14.504160746 17.239275425 20.646644169 23.547666884 24.909533181 24.539963948
          21.868223762 18.990127585 16.245139247 14.564847666 12.587715412 11.09670855
          9.3565041425 7.4852743759 6.1140913801 5.0841482807 4.363131593 3.8276985271
          1.5521056458 1.7599347937 2.0120452685 2.3435353254 2.7149999233 3.0907259046
          3.4731296774 3.8586043942 4.2510030172 4.6759516596 5.3219130752 6.1577974433
          6.9414009221 7.6872720302 8.4179488536 9.4374617978 10.899037835 12.055690095
          13.169727131 15.872403097 19.625483433 22.969742785 24.593138901 24.372795568
          21.756455828 18.920660868 16.196703761 14.530421719 12.554915231 11.068030407
          9.3320632764 7.4482478177 6.088628049 5.0524241584 4.3368206788 3.8006327953
          1.3025883122 1.4752133459 1.6856409217 1.9639360421 2.2763240595 2.5957936971
          2.9237492429 3.2581989618 3.6054685392 3.9877476613 4.5798725262 5.3480351773
          6.0726890512 6.7714675981 7.4578218942 8.4165922753 9.7848790769 10.860957156
          11.957264429 14.636855048 18.724244411 22.480426926 24.329228458 24.233539597
          21.665358107 18.861365822 16.152801929 14.497818571 12.523395085 11.037486045
          9.3027606376 7.4038690444 6.0553495082 5.0144187603 4.3125795252 3.7805860186
          1.1260376202 1.2699071778 1.4453403759 1.6774198191 1.9382641336 2.2023589214
          2.4716782151 2.7508095874 3.0444182046 3.3727956137 3.8897204753 4.5710047217
          5.225031643 5.8666056997 6.5056213313 7.41588599 8.7278717026 9.7613716448
          10.829776638 13.502095105 17.921229762 22.060649588 24.107858478 24.115374613
          21.590055739 18.809610006 16.113383898 14.467250618 12.492741488 11.005409023
          9.2719745496 7.3608577846 6.0208085151 4.9724586428 4.2910329241 3.7670785531
          1.0436538179 1.1676304563 1.3180889652 1.5157738452 1.7363427801 1.9539492739
          2.1717111954 2.3971734625 2.6357201473 2.902434948 3.3236901845 3.8947387705
          4.4585922215 5.0310308678 5.6195354516 6.4857089998 7.7622880709 8.7722345939
          9.8515872661 12.528960183 17.259179944 21.713935621 23.924213053 24.019167329
          21.527325088 18.763562186 16.077607931 14.438923419 12.463939568 10.976092579
          9.2447783715 7.3210150495 5.9898011202 4.9308829366 4.270173583 3.7577867827
          0.92975400459 1.0355282907 1.161561383 1.3238256643 1.5010827252 1.6743339398
          1.8491433952 2.0332589515 2.2313144074 2.459136725 2.8266330898 3.2868715766
          3.7483852453 4.2392593996 4.7837311377 5.6699196943 6.9613216637 7.8994899206
          9.0556552511 11.773387385 16.76839188 21.448606607 23.777870524 23.947200655
          21.4752353 18.722668795 16.044874088 14.412671797 12.436943122 10.948025898
          9.2188461787 7.2808583434 5.9598283091 4.8865473737 4.2486744369 3.748365106
        </DataArray>
        <DataArray type="Float64" Name="electrons_density" format="ascii" RangeMin="2.8340426624e+18" RangeMax="7.2949469671e+19">
          1.6936652983e+19 1.8633953776e+19 2.0225922918e+19 2.1746113912e+19 2.3051002975e+19 2.4084911678e+19
          2.4891059896e+19 2.5508307378e+19 2.5973618328e+19 2.6330515226e+19 2.6659480052e+19 2.6889607977e+19
          2.6909951087e+19 2.6693840077e+19 2.6242079032e+19 2.5400158794e+19 2.3903738246e+19 2.2539022873e+19
          2.1145068863e+19 2.1227421088e+19 2.2774288278e+19 2.3666307692e+19 2.2607313916e+19 2.1063463986e+19
          1.968973968e+19 1.8509058032e+19 1.7213713369e+19 1.5082337405e+19 1.3053049204e+19 1.1279663985e+19
          1.0273147218e+19 9.4862349463e+18 8.8840060994e+18 8.3679437133e+18 7.9249412478e+18 7.4881081731e+18
          1.6911724173e+19 1.8601363709e+19 2.0194942823e+19 2.1718857411e+19 2.3021110663e+19 2.4056916909e+19
          2.4866134925e+19 2.5484836348e+19 2.5946931753e+19 2.6296954635e+19 2.6619004915e+19 2.6843589154e+19
          2.6861231661e+19 2.6647656669e+19 2.6202206977e+19 2.5358150912e+19 2.3879354748e+19 2.2591758011e+19
          2.1677850047e+19 2.155720593e+19 2.2998627282e+19 2.3854419909e+19 2.2771573009e+19 2.1201344971e+19
          1.9827474649e+19 1.8639093844e+19 1.7328894291e+19 1.5142525224e+19 1.3082845619e+19 1.1337110704e+19
          1.0386570741e+19 9.6457678368e+18 9.0303001203e+18 8.4509650229e+18 7.9761161132e+18 7.587778457e+18
          1.6852981585e+19 1.8528398589e+19 2.0117191063e+19 2.1643335214e+19 2.2944958756e+19 2.3984445254e+19
          2.4798886164e+19 2.5422385828e+19 2.5886158911e+19 2.6234551711e+19 2.6553378014e+19 2.6775592979e+19
          2.6792404977e+19 2.6583256009e+19 2.6149913807e+19 2.5314865232e+19 2.3876285688e+19 2.27922128e+19
          2.243566366e+19 2.2019849752e+19 2.3217814995e+19 2.4043437879e+19 2.2941187194e+19 2.1344537795e+19
          1.9968086729e+19 1.8767827605e+19 1.7436105341e+19 1.5187126386e+19 1.309374538e+19 1.1376498005e+19
          1.0470571545e+19 9.7615544973e+18 9.1268001178e+18 8.5141435298e+18 8.0158970883e+18 7.6633179511e+18
          1.6764401424e+19 1.8417986978e+19 1.9995357139e+19 2.1521973402e+19 2.2825629174e+19 2.3870890168e+19
          2.4692481145e+19 2.5323572021e+19 2.5793891622e+19 2.6147397725e+19 2.6467331993e+19 2.6690987611e+19
          2.6708699041e+19 2.6505203627e+19 2.6087606232e+19 2.5270793972e+19 2.3955981761e+19 2.334958478e+19
          2.3354665295e+19 2.2688874036e+19 2.3484862559e+19 2.4260758856e+19 2.3132175897e+19 2.1500414448e+19
          2.0115587592e+19 1.8896934672e+19 1.7535048872e+19 1.5217309928e+19 1.3088536579e+19 1.1400169585e+19
          1.0532048648e+19 9.8506563525e+18 9.1844938507e+18 8.5234803616e+18 7.9931252254e+18 7.6923785245e+18
          1.6653223581e+19 1.8275709885e+19 1.98355078e+19 2.1361796526e+19 2.2671734348e+19 2.3725130176e+19
          2.4555553725e+19 2.5196514152e+19 2.5677508469e+19 2.6040688613e+19 2.6362703136e+19 2.6582408625e+19
          2.658013986e+19 2.6345984743e+19 2.594276868e+19 2.5316368055e+19 2.4483071433e+19 2.4384397883e+19
          2.4466738433e+19 2.3711865704e+19 2.3947753718e+19 2.4553923931e+19 2.3362384343e+19 2.1675432086e+19
          2.0272655241e+19 1.90271147e+19 1.7625255151e+19 1.5232230216e+19 1.3068284722e+19 1.1410816958e+19
          1.0576875546e+19 9.9174640173e+18 9.225249313e+18 8.5139368567e+18 7.9678138122e+18 7.6831661494e+18
          1.6539030932e+19 1.8117198632e+19 1.9653760847e+19 2.117556357e+19 2.2490010162e+19 2.3541962962e+19
          2.4367930123e+19 2.4998924857e+19 2.5465112714e+19 2.5813210138e+19 2.6133544528e+19 2.6353301073e+19
          2.6413581575e+19 2.6340824688e+19 2.6171242509e+19 2.586709382e+19 2.553423212e+19 2.5655870076e+19
          2.5696102539e+19 2.5065557124e+19 2.4787720699e+19 2.5016772085e+19 2.3664655278e+19 2.187932464e+19
          2.0442421359e+19 1.915857333e+19 1.7704950523e+19 1.5229272522e+19 1.3030352776e+19 1.1404592106e+19
          1.0599939831e+19 9.9581951909e+18 9.234322577e+18 8.49277617e+18 7.935377551e+18 7.6709441336e+18
          1.6406553084e+19 1.7915042554e+19 1.9387978022e+19 2.0879850441e+19 2.2183735133e+19 2.3244370036e+19
          2.4112747754e+19 2.4808667824e+19 2.5347565991e+19 2.5764006775e+19 2.617623133e+19 2.6494415993e+19
          2.6651014841e+19 2.6699825147e+19 2.6697676545e+19 2.6667994762e+19 2.6732491226e+19 2.6915522317e+19
          2.6948486839e+19 2.6555956531e+19 2.5984209878e+19 2.5692708886e+19 2.4066135131e+19 2.2119482944e+19
          2.0626714848e+19 1.9290827642e+19 1.7772321792e+19 1.5205828825e+19 1.2967875559e+19 1.1374228833e+19
          1.0593426856e+19 9.9706498446e+18 9.2253303573e+18 8.4486102864e+18 7.8864937824e+18 7.6616757535e+18
          1.6261249923e+19 1.7752776557e+19 1.9223414946e+19 2.0775501574e+19 2.2150857088e+19 2.3265463187e+19
          2.4175256966e+19 2.4905238082e+19 2.5475378197e+19 2.5916851952e+19 2.6381235088e+19 2.6804898492e+19
          2.7080949498e+19 2.7268478416e+19 2.7421431796e+19 2.7589819463e+19 2.7866292544e+19 2.8108623841e+19
          2.8234474255e+19 2.8144469535e+19 2.7432452106e+19 2.6559667529e+19 2.4588664043e+19 2.2410516307e+19
          2.0833093657e+19 1.9427051641e+19 1.7825529579e+19 1.5158210199e+19 1.2875940078e+19 1.1321163731e+19
          1.056151349e+19 9.9598157049e+18 9.196868772e+18 8.3898572545e+18 7.8431120374e+18 7.5862432467e+18
          1.6287422152e+19 1.7782188456e+19 1.9262316556e+19 2.0820360157e+19 2.2208398478e+19 2.3331650975e+19
          2.4233538846e+19 2.4972023868e+19 2.5569239289e+19 2.6049962707e+19 2.6608423677e+19 2.7203131269e+19
          2.7659475818e+19 2.8019648206e+19 2.8314539687e+19 2.8629750541e+19 2.9066431307e+19 2.9438713531e+19
          2.9676972445e+19 2.9887596822e+19 2.9085046713e+19 2.7644409283e+19 2.5288425707e+19 2.2807700453e+19
          2.1096186725e+19 1.9582178365e+19 1.7862677559e+19 1.5078725033e+19 1.2760670747e+19 1.1249666842e+19
          1.0503968296e+19 9.9212790663e+18 9.1511460236e+18 8.3336862169e+18 7.808088365e+18 7.4891597172e+18
          1.6350608226e+19 1.7807225095e+19 1.9279849462e+19 2.0860820606e+19 2.2298595281e+19 2.3469026856e+19
          2.4424257194e+19 2.5223556737e+19 2.5877667232e+19 2.6417434367e+19 2.7073907513e+19 2.7823841641e+19
          2.8444868143e+19 2.8966255452e+19 2.940078736e+19 2.988765681e+19 3.0549854071e+19 3.1071874311e+19
          3.1401140264e+19 3.1840484375e+19 3.0919429348e+19 2.8984549501e+19 2.6168770398e+19 2.3335876232e+19
          2.1439241157e+19 1.9767199502e+19 1.7877974057e+19 1.4959652219e+19 1.2614744042e+19 1.1152851312e+19
          1.0416232079e+19 9.8583137982e+18 9.0909514458e+18 8.2675977009e+18 7.7327649965e+18 7.3759665231e+18
          1.6828973697e+19 1.8218243528e+19 1.964361371e+19 2.1218040903e+19 2.2680160696e+19 2.3891989565e+19
          2.4913884476e+19 2.5776818242e+19 2.6495745579e+19 2.7115348295e+19 2.7889814271e+19 2.8814794935e+19
          2.9612469303e+19 3.0295377673e+19 3.0857602982e+19 3.1475772033e+19 3.2300557238e+19 3.2931891251e+19
          3.3325961896e+19 3.3898787135e+19 3.293223605e+19 3.0596552993e+19 2.7189291905e+19 2.3978559176e+19
          2.1849615934e+19 1.997191079e+19 1.7856908568e+19 1.4795106057e+19 1.2457809553e+19 1.1048857371e+19
          1.0318694643e+19 9.7869137714e+18 9.0251961468e+18 8.203566083e+18 7.6571079972e+18 7.2615614737e+18
          1.7474705593e+19 1.8819456485e+19 2.0212097519e+19 2.1792663025e+19 2.3293996973e+19 2.4564272743e+19
          2.5655512191e+19 2.6590313967e+19 2.7385293705e+19 2.8090955698e+19 2.8996625829e+19 3.0099807132e+19
          3.1052792923e+19 3.1858077316e+19 3.2510528914e+19 3.3223610294e+19 3.4156043003e+19 3.4859539064e+19
          3.5305621615e+19 3.5992632238e+19 3.5148123635e+19 3.2426927576e+19 2.8318825833e+19 2.4725013801e+19
          2.2316052187e+19 2.0182827382e+19 1.7783032883e+19 1.4580034013e+19 1.2297933078e+19 1.0932179e+19
          1.0198661621e+19 9.7001014895e+18 8.9439065825e+18 8.1137008028e+18 7.5341273496e+18 7.1089591046e+18
          1.8169169198e+19 1.9501946995e+19 2.0914973497e+19 2.252903387e+19 2.4092165277e+19 2.5440474505e+19
          2.6606139344e+19 2.7615531536e+19 2.8487935717e+19 2.9278144074e+19 3.03094016e+19 3.1572745933e+19
          3.2659538873e+19 3.3573581029e+19 3.4314489246e+19 3.5136225038e+19 3.619537317e+19 3.6973203487e+19
          3.7486344906e+19 3.8339457715e+19 3.7684006759e+19 3.4411776939e+19 2.9561893575e+19 2.5560968977e+19
          2.2815030476e+19 2.0376498888e+19 1.7643100798e+19 1.4338953041e+19 1.2129349224e+19 1.0812461554e+19
          1.0076071125e+19 9.5987728881e+18 8.8480039417e+18 8.0159739738e+18 7.4049943228e+18 6.9519170961e+18
          1.9392003562e+19 2.0677961402e+19 2.2051214872e+19 2.3652472659e+19 2.5247717176e+19 2.6646843121e+19
          2.7872032568e+19 2.8957605151e+19 2.9916630061e+19 3.0798538636e+19 3.1955595527e+19 3.3382538407e+19
          3.4617508777e+19 3.5662438052e+19 3.6512909954e+19 3.7453893119e+19 3.8659474827e+19 3.9534025063e+19
          4.0112621303e+19 4.1121433904e+19 4.0540867646e+19 3.6551912341e+19 3.0951325249e+19 2.6460405873e+19
          2.3307657108e+19 2.0503997809e+19 1.7434064376e+19 1.4101118914e+19 1.196201556e+19 1.0671659566e+19
          9.9347674842e+18 9.4858622552e+18 8.7367486927e+18 7.8891789996e+18 7.2272812416e+18 6.7615731346e+18
          2.0959593656e+19 2.2208716312e+19 2.3526364952e+19 2.5107405726e+19 2.6742235362e+19 2.8215318388e+19
          2.9530989053e+19 3.0713374585e+19 3.1769123453e+19 3.2750880989e+19 3.4048696075e+19 3.5653064501e+19
          3.7035524205e+19 3.8204905481e+19 3.9175036267e+19 4.0245131509e+19 4.1582838671e+19 4.2548572816e+19
          4.3176012483e+19 4.4280308705e+19 4.3598070322e+19 3.8887283884e+19 3.2460290238e+19 2.7359982076e+19
          2.3755159092e+19 2.0529950715e+19 1.7177597847e+19 1.3871916062e+19 1.179909797e+19 1.0525534662e+19
          9.7879160581e+18 9.3570014516e+18 8.6029891638e+18 7.7476265932e+18 7.0612252273e+18 6.5789066604e+18
          2.2623743905e+19 2.3879870698e+19 2.5204258294e+19 2.6788015631e+19 2.8466666383e+19 3.004612664e+19
          3.1480018484e+19 3.2768182203e+19 3.3920182825e+19 3.4995901396e+19 3.642610261e+19 3.8207387287e+19
          3.9748762174e+19 4.1050362367e+19 4.213144898e+19 4.3320894562e+19 4.4794272829e+19 4.585601225e+19
          4.6535986079e+19 4.7713293307e+19 4.69239678e+19 4.1450795755e+19 3.4012160747e+19 2.8195136641e+19
          2.4102021737e+19 2.0444606597e+19 1.6900257989e+19 1.3638414007e+19 1.1625995278e+19 1.0368896114e+19
          9.6277331111e+18 9.2049907902e+18 8.4512421191e+18 7.5902526502e+18 6.8807980676e+18 6.4615935531e+18
          2.4653024795e+19 2.5877922613e+19 2.7169567067e+19 2.8731895896e+19 3.0427878267e+19 3.2071348245e+19
          3.3597995304e+19 3.4992471549e+19 3.6241781138e+19 3.7412639152e+19 3.8991747863e+19 4.0989384579e+19
          4.2746366649e+19 4.4237168267e+19 4.5443814046e+19 4.6758513546e+19 4.8420390065e+19 4.9618890359e+19
          5.0374695636e+19 5.1665667609e+19 5.0713836062e+19 4.4184265822e+19 3.5493232986e+19 2.8914923833e+19
          2.4294754524e+19 2.0254266064e+19 1.6603372431e+19 1.3385640366e+19 1.1441176881e+19 1.0195328753e+19
          9.4438091016e+18 9.0441885624e+18 8.2889256699e+18 7.4210956049e+18 6.7138471942e+18 6.3027909102e+18
          2.6877310107e+19 2.8073499987e+19 2.9352647398e+19 3.0943853452e+19 3.2687269336e+19 3.4380458037e+19
          3.5988878969e+19 3.7487846544e+19 3.8855845482e+19 4.0152843496e+19 4.1920941469e+19 4.4190484384e+19
          4.6198827016e+19 4.7908354233e+19 4.9289738043e+19 5.0785670353e+19 5.2684213624e+19 5.4048221199e+19
          5.488813844e+19 5.6309661956e+19 5.4947483268e+19 4.6874994719e+19 3.6787350328e+19 2.9451287061e+19
          2.4306715505e+19 1.9967240737e+19 1.6281241525e+19 1.3110176767e+19 1.1200132597e+19 9.9732818401e+18
          9.2522423586e+18 8.8568743797e+18 8.1073123812e+18 7.2348446305e+18 6.4984046835e+18 6.1155117967e+18
          2.9331218919e+19 3.0541892854e+19 3.1864244395e+19 3.3524933086e+19 3.5355301178e+19 3.7134266677e+19
          3.8833976399e+19 4.0429601715e+19 4.1916257133e+19 4.335413489e+19 4.5326024377e+19 4.7877686467e+19
          5.0145170921e+19 5.2062174587e+19 5.3618474762e+19 5.5331243489e+19 5.7513873352e+19 5.9080831257e+19
          5.9987120066e+19 6.1445579874e+19 5.9245488547e+19 4.930406233e+19 3.7834865816e+19 2.9744164684e+19
          2.41224115e+19 1.9575473444e+19 1.5909194196e+19 1.2815203482e+19 1.09505031e+19 9.7392687911e+18
          9.0384854078e+18 8.6551543697e+18 7.9212474364e+18 7.0272911925e+18 6.2064530396e+18 5.8618094016e+18
          3.2180509221e+19 3.3382839663e+19 3.47113662e+19 3.6389469149e+19 3.8236834839e+19 4.0053720168e+19
          4.1817730094e+19 4.3487320393e+19 4.5052077706e+19 4.6581691371e+19 4.8707266585e+19 5.1492533673e+19
          5.3997344991e+19 5.613700126e+19 5.7878538893e+19 5.9797003702e+19 6.225190305e+19 6.399713508e+19
          6.4942882929e+19 6.6321608804e+19 6.3121361284e+19 5.1303618149e+19 3.8539854999e+19 2.9731251852e+19
          2.3702731623e+19 1.9064253896e+19 1.5467502209e+19 1.2463486387e+19 1.0657587961e+19 9.4903014686e+18
          8.7991833446e+18 8.4014912514e+18 7.7086714608e+18 6.7844758372e+18 5.8217278274e+18 5.4865490379e+18
          3.4581903716e+19 3.5726229884e+19 3.70035779e+19 3.8633584594e+19 4.0449900792e+19 4.2257533473e+19
          4.4039733421e+19 4.574501425e+19 4.7355647704e+19 4.8954195443e+19 5.1204729185e+19 5.4190719145e+19
          5.691942107e+19 5.9306203071e+19 6.1279599135e+19 6.3420918621e+19 6.6190743701e+19 6.8189068867e+19
          6.9246052599e+19 7.0751973152e+19 6.6640169516e+19 5.2836397251e+19 3.8748999816e+19 2.9273997893e+19
          2.2969393028e+19 1.8390915574e+19 1.4932951564e+19 1.2057469053e+19 1.0319924547e+19 9.1508984903e+18
          8.4584780592e+18 8.0796951938e+18 7.4043789929e+18 6.471464438e+18 5.4114242075e+18 5.0496593454e+18
          3.4032235163e+19 3.506616975e+19 3.6274002559e+19 3.7892602753e+19 3.9763895883e+19 4.1652652447e+19
          4.3507687957e+19 4.5297173307e+19 4.7014091042e+19 4.8727559199e+19 5.1158777549e+19 5.4380418644e+19
          5.7330614838e+19 5.9925171816e+19 6.2079418229e+19 6.4451705443e+19 6.7534070968e+19 6.9874029324e+19
          7.1163616657e+19 7.2949469671e+19 6.8001468575e+19 5.2703237536e+19 3.7838583793e+19 2.8040047973e+19
          2.181594485e+19 1.7499579758e+19 1.428086853e+19 1.1569297775e+19 9.9184530833e+18 8.7908282508e+18
          8.1040993145e+18 7.7332200948e+18 7.0937248983e+18 6.1475777055e+18 4.9914060229e+18 4.5705054374e+18
          2.7560302064e+19 2.8572053906e+19 2.9934143735e+19 3.1882758299e+19 3.4160774156e+19 3.638965413e+19
          3.8504038529e+19 4.0517858303e+19 4.2428625357e+19 4.4324056839e+19 4.6998602707e+19 5.0479606038e+19
          5.3643765217e+19 5.643526019e+19 5.8789495661e+19 6.1429077815e+19 6.4944195568e+19 6.7724314912e+19
          6.9453934969e+19 7.2017805286e+19 6.7248928546e+19 5.1067001682e+19 3.5698352311e+19 2.5919729229e+19
          2.0096323043e+19 1.6253069834e+19 1.3419214518e+19 1.0964159553e+19 9.440661215e+18 8.3402155229e+18
          7.6614550847e+18 7.2913144402e+18 6.6977392644e+18 5.7766271813e+18 4.5012221467e+18 3.9451456142e+18
          1.5144328559e+19 1.6508019742e+19 1.8450413722e+19 2.105078459e+19 2.3833643891e+19 2.6364211656e+19
          2.8641719137e+19 3.0728991034e+19 3.2644250797e+19 3.4485437356e+19 3.7005190104e+19 4.0169751049e+19
          4.2894021256e+19 4.5195274552e+19 4.7017044706e+19 4.891918694e+19 5.1339597595e+19 5.3301049942e+19
          5.4447745321e+19 5.59398547e+19 5.1137160107e+19 3.8714068033e+19 2.7671902298e+19 2.0746356681e+19
          1.6966953707e+19 1.4352309436e+19 1.2282721117e+19 1.0213379127e+19 8.8622306794e+18 7.8062440056e+18
          7.120301293e+18 6.7182015051e+18 6.1885619447e+18 5.2950906694e+18 3.8451178876e+18 2.8340426624e+18
        </DataArray>
        <DataArray type="Float64" Name="ions_0_temperature" format="ascii" RangeMin="0.49474486779" RangeMax="44.293077462">
          2.0189435509 2.6669427242 3.4154319857 4.292766205 5.2242932262 6.1514954887
          7.0698362958 7.9833397217 8.9028285644 9.8716423745 11.14107868 12.719115134
          14.41324924 16.248469631 18.296559091 21.317227364 26.35542779 31.575209663
          42.794763226 44.293077462 41.712123091 37.569045612 33.064084082 27.764313857
          22.537193982 17.756080275 14.059003816 11.225546984 8.9610026188 6.9114991391
          5.0498948005 3.5010187193 2.4173875299 1.7306979588 1.3072192601 1.1091797271
          2.0171324556 2.6610124699 3.4140187929 4.2990835072 5.2315623177 6.160477652