<?xml version="1.0"?>
<VTKFile type="PolyData" version="0.1" byte_order="LittleEndian" header_type="UInt32" compressor="vtkZLibDataCompressor">
  <PolyData>
    <Piece NumberOfPoints="3588" NumberOfVerts="3588" NumberOfLines="0" NumberOfStrips="0" NumberOfPolys="0">
      <PointData>
      </PointData>
      <CellData>
        <DataArray type="Float64" Name="electrons_temperature" format="ascii" RangeMin="0.27196975745" RangeMax="165.39113397">
          0.47250712528 0.52432081051 0.58282015343 0.65565113231 0.73302160913 0.80603603116
          0.87497148617 0.94048141131 1.003014854 1.0644842564 1.1506040572 1.260473391
          1.3599732233 1.4480964591 1.5274230799 1.630785372 1.7823561605 1.9204835639
          2.0642122066 2.4071489252 3.4334412711 5.86313724 9.0971720638 11.521097175
          12.826878744 12.420469413 11.178120992 9.9702118335 8.4281779334 6.3571974359
          4.3826807843 2.696674236 1.198279311 0.56702841439 0.36637647941 0.29054527819
          0.27196975745 0.53660407199 0.59934937921 0.67132399153 0.76071464837 0.85432723231
          0.94258563047 1.0269538456 1.108438148 1.1873608163 1.2658211371 1.3776087758
          1.5210693861 1.6531713459 1.7760984848 1.8925781658 2.0518486341 2.2914851535
          2.5049188631 2.731092576 3.3457694501 4.9399778296 7.1008454552 9.5295730473
          11.671987321 12.896630947 12.47445498 11.231473363 10.007476898 8.4623990147
          6.3981959207 4.4315298366 2.764358524 1.2990256461 0.61733569579 0.38499467121
          0.29871548986 0.27973523381 0.6352572974 0.71102903661 0.79865957249 0.90937374192
          1.0270903016 1.139102014 1.2465910941 1.3501472132 1.4507129634 1.5542782791
          1.7070033269 1.9047523614 2.0903595847 2.2668685523 2.4382143052 2.680254628
          3.0388453612 3.3384897396 3.6714814222 4.6332878597 6.6202883997 8.3321188133
          10.057710423 11.844300294 12.974891924 12.529664476 11.284653239 10.046925597
          8.4976555728 6.4396497802 4.4814751334 2.8301650254 1.3884430277 0.65022234767
          0.3969629048 0.30958895254 0.29057887824 0.82150148744 0.92156746988 1.0379233032
          1.1872006302 1.3496571049 1.5059362293 1.6559727658 1.8008465825 1.9428944666
          2.0912563986 2.3138729146 2.604350224 2.8791638133 3.1427741963 3.4008064218
          3.762442956 4.2653497288 4.6560880282 5.0958438134 6.3326244103 8.3543282514
          9.5079847853 10.632246795 12.040059662 13.060381484 12.58719789 11.339068986
          10.088303275 8.534623415 6.4831920293 4.5331425371 2.8922704457 1.469300114
          0.67816926584 0.40475725203 0.31097378718 0.29041772841 1.0707837273 1.2115893762
          1.3759009661 1.5850131381 1.810707275 2.0285314722 2.2392443448 2.4422860477
          2.6413092741 2.8523176161 3.1737850772 3.5943898046 3.9887245234 4.3621807034
          4.7196589726 5.210798206 5.8828054243 6.3816635886 6.9084877294 8.3054095181
          10.133278571 10.708170032 11.22898245 12.262315256 13.152982018 12.64827983
          11.394058895 10.130538787 8.5735362502 6.5293873233 4.5870235889 2.9542729748
          1.5471426922 0.70744217197 0.41601179667 0.32043008217 0.30049064313 1.370103362
          1.551705073 1.7619509674 2.0329117933 2.3289731205 2.6173444958 2.9001434753
          3.1762872003 3.4500612142 3.7409443918 4.1811918509 4.7482854724 5.2725240717
          5.7618727133 6.223172472 6.8466350856 7.7050878552 8.335199191 8.9448489377
          10.411372615 11.968336821 12.032377916 11.89709928 12.519585192 13.251603161
          12.711548181 11.451633633 10.175221364 8.6127181333 6.5752815045 4.6422694323
          3.0197619403 1.6259726069 0.73700045143 0.43095069407 0.33106950086 0.31019182679
          1.6770700385 1.9028455973 2.1656152534 2.5051140959 2.8801018424 3.2466429974
          3.6077427763 3.9637521081 4.3163899997 4.6856841645 5.2344172205 5.9340728832
          6.5775620032 7.1742095728 7.7308682398 8.4727915714 9.5004038184 10.275233498
          10.981212361 12.580977244 13.92936078 13.554005001 12.708740085 12.822077512
          13.356946375 12.775514459 11.51248186 10.223100321 8.6532498235 6.6242376181
          4.7009856764 3.0853916974 1.7035139184 0.773883727 0.45016240217 0.34627409285
          0.32423536302 1.9551187853 2.2390920335 2.5688877375 2.9894938673 3.4518635893
          3.9038998506 4.3444049571 4.7758114739 5.1997290107 5.629964402 6.2543621393
          7.0609857243 7.8081460373 8.5027525995 9.1483111802 9.9999274 11.19620258
          12.127236698 12.96482917 14.797026091 16.00094212 15.279254876 13.813384747
          13.222127694 13.478601573 12.840959143 11.571926473 10.272285002 8.695876729
          6.6711116471 4.7567189974 3.1481747342 1.7782910866 0.81921948106 0.47514097049
          0.36857307977 0.34670915692 2.2379014101 2.5861397924 2.975094859 3.4621702275
          3.9990449335 4.5220499637 5.0272579389 5.5171215738 5.9946875551 6.4768902223
          7.1737339927 8.084030245 8.9313034616 9.720268477 10.454062067 11.417003766
          12.782351226 13.868755498 14.841559473 16.941086248 18.042067614 17.093432257
          15.250508337 13.862241204 13.643954264 12.915339176 11.633092975 10.321811783
          8.7391124011 6.7163345832 4.812700957 3.2145873959 1.8529713502 0.87424708776
          0.49708034006 0.38584707338 0.36327699139 2.4854253356 2.8860293389 3.3327240355
          3.8879751607 4.4924321424 5.0753694671 5.6328610728 6.1693415675 6.6840994042
          7.2061582284 7.9642951192 8.9594611958 9.8936083874 10.771084274 11.592190104
          12.674707368 14.237910525 15.505645015 16.61946064 18.987845574 19.985527233
          18.853724014 16.808490187 14.825448174 13.933137701 13.005747692 11.698190122
          10.373012666 8.7829618093 6.7643270435 4.8743190902 3.289346419 1.932555863
          0.93534283189 0.52250297917 0.3985177649 0.37311483377 2.6639504431 3.1121005374
          3.6185073317 4.2426181945 4.9089024022 5.5475350026 6.158496575 6.7461684565
          7.2977584066 7.8475312636 8.6473962315 9.7115185904 10.722172369 11.680009061
          12.580729589 13.775565229 15.56940112 17.069605903 18.366687508 21.026269212
          21.85138812 20.527849206 18.313745822 16.005861963 14.432042336 13.132602797
          11.770248539 10.425756866 8.826506471 6.8104721636 4.9323904743 3.3627447702
          2.0120245053 1.0011144042 0.55300049752 0.4295342699 0.40742311745 2.7702087073
          3.2868482458 3.8586188257 4.5391059549 5.2504238846 5.9295526275 6.5766583984
          7.1987065847 7.7855265862 8.3663670905 9.2107062442 10.346161656 11.433647157
          12.471547184 13.444367112 14.741897564 16.764902622 18.528678854 20.049328879
          23.025028682 23.617351214 22.12650921 19.73167156 17.222480164 15.118050554
          13.355606141 11.854662164 10.479174776 8.8698887899 6.8600648299 4.9897143663
          3.4327851542 2.0932964224 1.0794614775 0.59329400233 0.44722396777 0.41781843005
          2.8261963141 3.3824728516 4.0065824683 4.7489673739 5.5167744139 6.2375741107
          6.9156301152 7.5599234268 8.1699445185 8.7751887486 9.6551351569 10.854048755
          12.015033695 13.143591864 14.197281277 15.595614645 17.857195123 19.912042607
          21.685701608 24.995590212 25.324554143 23.65213746 21.060905723 18.383673682
          15.916294189 13.709241377 11.970820296 10.541681552 8.9120759274 6.9091814318
          5.0473563338 3.5002714561 2.1733420329 1.1599543151 0.63065613912 0.48077143059
          0.45370127403 2.817210106 3.3982482358 4.0573782278 4.859017436 5.6913510805
          6.4595668482 7.1772727513 7.8624077589 8.4997456022 9.113819534 10.011019299
          11.259215941 12.476913856 13.675564233 14.814990642 16.32856864 18.848058781
          21.255959962 23.341324494 26.928988226 26.997612492 25.11241394 22.314626634
          19.457004693 16.746612652 14.141136662 12.129690721 10.60429193 8.9558827887
          6.960870467 5.1093274273 3.5712172498 2.2575909151 1.2519040638 0.68902638481
          0.52763281512 0.49840885178 2.7403594471 3.3687606383 4.0707148708 4.9216982646
          5.8116661216 6.6140571383 7.3474454371 8.0559290462 8.7206473793 9.3636547771
          10.295157766 11.584584942 12.843730221 14.088868177 15.294945487 16.926660857
          19.697857326 22.511042507 25.080030177 28.84290653 28.630674812 26.489221933
          23.491507044 20.407242004 17.507483714 14.590090292 12.318193423 10.663402126
          9.0059710502 7.0145227322 5.174417727 3.6481373536 2.3464993988 1.3440582413
          0.75722485915 0.57427029896 0.54017785097 2.6582451346 3.3290121937 4.0819700564
          4.9565907305 5.8503706348 6.6716958813 7.4285542219 8.1543178099 8.8437317442
          9.5289652342 10.508270571 11.830988283 13.123895124 14.423034992 15.691539802
          17.425367929 20.451809481 23.654370167 26.987869822 30.804585633 30.223861907
          27.771768787 24.572749593 21.227040899 18.140679484 15.012362471 12.519238778
          10.73006936 9.0571001364 7.0667869342 5.2358264964 3.7177251286 2.4292828841
          1.4334799829 0.83872702857 0.64773202783 0.61324081577 2.5765325657 3.2832495629
          4.0556797187 4.921804887 5.8049672189 6.6442887959 7.4364411392 8.191828393
          8.9121215006 9.6351940919 10.661319191 12.021409684 13.334275649 14.658176843
          15.99076344 17.838434686 21.136378894 24.712475422 28.96812056 32.723923028
          31.772570314 28.986837341 25.497704953 21.90731099 18.632879049 15.362829332
          12.708211433 10.800527702 9.1079041597 7.1231665378 5.2991090577 3.7827027278
          2.5129974466 1.5308514684 0.93384814749 0.72738337926 0.68530981691 2.5345434027
          3.2607364862 4.0072275028 4.8554887916 5.7495858173 6.6047729545 7.4201106595
          8.2039715885 8.9606468171 9.7284559666 10.772582682 12.138767159 13.475545367
          14.822206217 16.203451783 18.163217323 21.702425332 25.761907292 30.855038651
          34.662155075 33.242027963 30.100842518 26.227879998 22.442881902 19.00374535
          15.639451732 12.879037885 10.876872204 9.1597625777 7.1828847945 5.3728989863
          3.8544086179 2.5992781651 1.633095818 1.0368523309 0.82072099702 0.7772146335
          2.462888093 3.1900676271 3.9300952463 4.7833173931 5.6891410845 6.5553254968
          7.3860437571 8.1909573768 8.98243049 9.7748344417 10.816655316 12.17787821
          13.540410423 14.925253461 16.350388321 18.406699198 22.126230464 26.735189142
          32.859136635 36.597603805 34.514733776 30.98488039 26.762526757 22.841086494
          19.280571348 15.860740029 13.03154937 10.956555677 9.2165407723 7.2485081579
          5.4505526002 3.9321836559 2.6876587105 1.7403346862 1.1455067107 0.91349596895
          0.85858215648 2.4168091405 3.1406324296 3.8793460614 4.7358255456 5.6457467143
          6.5171653553 7.3549987204 8.1692781906 8.9757552241 9.7759127545 10.819879058
          12.179185312 13.554017972 14.963520902 16.434457011 18.562674171 22.436247813
          27.484729222 35.312902603 38.307253032 35.568191925 31.608973175 27.148332329
          23.134373387 19.495499342 16.050250869 13.171580229 11.041104271 9.2754342612
          7.3074027895 5.5198428372 4.0146678504 2.7822590445 1.8488032582 1.2458327121
          0.99872011015 0.93640300553 2.3703713788 3.0906006447 3.8309953824 4.6909754711
          5.6041564368 6.4803083695 7.3237925692 8.1441836411 8.955852139 9.7629567467
          10.811216942 12.167330548 13.550075377 14.976001277 16.48373572 18.659938657
          22.658054551 28.049502892 38.174132631 39.822842253 36.455614224 32.071169283
          27.442906652 23.363651054 19.67906776 16.225544532 13.307143702 11.129558726
          9.3344129115 7.3652544085 5.5915295576 4.0944033501 2.8664017491 1.9489345515
          1.3432308122 1.0885252235 1.0299999369 2.3259027869 3.0421699959 3.787992016
          4.6533254376 5.5683832376 6.447667298 7.2941306742 8.1164183367 8.9267666689
          9.7389288306 10.794336042 12.14999328 13.538706342 14.975118279 16.503982579
          18.703659177 22.784460171 28.445454173 41.246760703 41.144476445 37.134295784
          32.414244972 27.675170327 23.560993793 19.850171559 16.395359617 13.442144312
          11.221824093 9.3974553605 7.4303823307 5.6701943315 4.1738646993 2.9444577405
          2.0479587596 1.450684337 1.1765083853 1.1051412725 2.2917688292 3.0042254531
          3.7579806691 4.6291968912 5.5453898412 6.427047851 7.2755026351 8.0985872611
          8.9070382991 9.7225867042 10.782335919 12.13877502 13.530208303 14.970048178
          16.504159718 18.709634702 22.826117409 28.616941467 44.026991953 42.056660449
          37.585552354 32.665878567 27.876350974 23.747061778 20.018672022 16.564086159
          13.578226396 11.321657383 9.468466041 7.5015513858 5.7505927381 4.2570446147
          3.0329509466 2.1481615609 1.5436531173 1.2615822104 1.1919537902 2.269380638
          2.9782522838 3.740070023 4.6162572909 5.5325304742 6.415283735 7.2644515703
          8.0872094057 8.8930673405 9.7104713662 10.773031381 12.131188071 13.52485454
          14.967008243 16.503590514 18.710135029 22.836726332 28.667346269 46.01815296
          42.570726178 37.89533584 32.877427683 28.071030404 23.934223321 20.190338384
          16.73427048 13.715047063 11.416859819 9.532661845 7.5646612827 5.8246523581
          4.3384582623 3.1194789072 2.248100328 1.6416910552 1.3457413447 1.2667572236
          165.29632896 162.20637608 158.31675762 153.36281006 147.37246508 140.58851054
          133.36387777 125.81066131 117.96064048 109.95171004 101.9000623 93.948962775
          86.320117809 79.243251769 72.895066621 67.432450845 62.898909964 58.846420032
          46.408927279 42.930056105 38.159335881 33.085482165 28.276571964 24.131821388
          20.369760639 16.908665514 13.857866036 11.51083513 9.5942216788 7.6213293314
          5.8905201009 4.4173281931 3.209119872 2.3480543765 1.7391587225 1.425291061
          1.3476242736 165.31006661 162.21280329 158.31884046 153.36349993 147.37271263
          140.58858124 133.36395166 125.81068999 117.9604086 109.95140205 101.89981941
          93.948433457 86.31900976 79.240531085 72.887077954 67.409172264 62.828885012
          58.562528965 49.090350863 43.589141368 38.451879009 33.324612839 28.513693608
          24.351123022 20.563473757 17.092037281 14.010891348 11.608942482 9.6561990085
          7.6823770481 5.9589416378 4.4950398521 3.2970507502 2.4364587297 1.8341583871
          1.5051125917 1.4227303424 165.31785337 162.2166648 158.32011167 153.36391864
          147.37286344 140.58862568 133.36399563 125.81070913 117.96028506 109.95124154
          101.89969257 93.948161664 86.318428535 79.238926345 72.880507263 67.380547075
          62.721958863 58.317340279 51.256941098 45.377110217 39.445215478 33.836854348
          28.862422162 24.618949836 20.788264445 17.301141379 14.188318791 11.723064011
          9.7214918934 7.7469812796 6.0291890591 4.5707217364 3.3855558523 2.5262882308
          1.927076233 1.5831260495 1.489996544 165.32642382 162.22114829 158.32160338
          153.364405 147.37303833 140.58867799 133.36404621 125.81073255 117.96013583
          109.95102251 101.89948265 93.947565237 86.316853232 79.234129623 72.863277036
          67.322776991 62.569397006 58.249377624 53.185727216 47.752389584 41.435841302
          35.207205172 29.849417977 25.312309172 21.272786664 17.661652303 14.449359245
          11.890308227 9.8137314409 7.822482705 6.1039164608 4.6448392717 3.4705416809
          2.6177013329 2.0188369857 1.6674278347 1.5750774144 165.34124906 162.22960106
          158.3245751 153.36542522 147.37343034 140.58880977 133.36418174 125.81081904
          117.95976808 109.95051769 101.89918805 93.946557056 86.314329567 79.226409266
          72.839603277 67.261538102 62.463150588 58.339123136 54.722129151 49.785200146
          43.496984917 37.142151584 31.518949667 26.685897749 22.354114587 18.552546251
          15.133343871 12.33283639 10.00714591 7.9157048371 6.1893729859 4.7257413689
          3.562721245 2.7173314313 2.1131630898 1.7513720947 1.6522813978 165.3695173
          162.24868163 158.33132113 153.36778835 147.37443153 140.58928964 133.3646875
          125.81124212 117.95935785 109.95003869 101.89939173 93.946025478 86.312537662
          79.219732122 72.819278895 67.217491003 62.418477556 58.565543974 55.795804842
          51.321349263 45.171887704 38.886685163 33.215705019 28.288405738 23.815654549
          19.904446488 16.319548448 13.280618502 10.614588483 8.2556419529 6.3437239956
          4.8391631306 3.6835429075 2.8321151929 2.2139793817 1.846024732 1.739583598
          165.39113397 162.27689441 158.341554 153.37139986 147.37611485 140.59020333
          133.36565187 125.81209614 117.95923189 109.95021327 101.90072906 93.946813811
          86.312389331 79.215884715 72.80494187 67.190733172 62.419671797 58.849821618
          56.546932253 52.479927701 46.566728994 40.31161643 34.65763033 29.708898218
          25.218955323 21.238013625 17.633440716 14.533087793 11.688902175 9.1188867202
          6.9842125088 5.301650456 3.9750751361 3.0088613709 2.3391895068 1.9615799716
          1.8502016225 165.38422267 162.30578179 158.35276889 153.37546992 147.37833863
          140.59160703 133.36702868 125.81351511 117.95992068 109.95139238 101.90303207
          93.948775302 86.313973687 79.215093689 72.797368481 67.179591996 62.460453204
          59.157193977 57.134103559 53.397066821 47.697608556 41.500966836 35.864916072
          30.904062469 26.432269816 22.421759348 18.849625987 15.747597209 12.905251953
          10.328778618 8.0699157171 6.1822339006 4.6803883924 3.593397259 2.8447569484
          2.428444922 2.3059427383 165.34725661 162.32984403 158.36331221 153.37951141
          147.38092088 140.593606 133.36900504 125.8153809 117.96130199 109.95340048
          101.90585836 93.9518151 86.31745644 79.217411036 72.796273365 67.183376668
          62.533373062 59.451380419 57.613650249 54.134559512 48.624238313 42.531610389
          36.906648275 31.923726142 27.455453012 23.445907726 19.899689348 16.831335429
          14.044393755 11.52480034 9.3188632667 7.4686540688 5.915390774 4.6788336561
          3.7958617997 3.3112378607 3.1678391308 165.28786566 162.3478449 158.37294027
          153.38340558 147.38350121 140.5959587 133.37140851 125.81732083 117.96295105
          109.95604513 101.9093405 93.955770927 86.322207417 79.221844037 72.800377681
          67.200089072 62.628145517 59.724440428 58.026325504 54.758489767 49.423325663
          43.443228848 37.819999282 32.808888174 28.332501691 24.310585156 20.793892672
          17.752050513 15.006526411 12.540140526 10.381388289 8.5555583286 7.0183986273
          5.7914735852 4.8862145216 4.3594886433 4.1978320721 165.21559452 162.3599165
          158.38124178 153.38667239 147.38573065 140.59839157 133.37400699 125.81945873
          117.96490466 109.95889244 101.91293107 93.960211944 86.327756863 79.227506184
          72.808254319 67.227392131 62.741109636 59.993006542 58.398739182 55.304197137
          50.13100273 44.246250795 38.625541097 33.584750884 29.088200147 25.051159586
          21.556452958 18.527572053 15.803932094 13.364679872 11.233139413 9.4080265371
          7.8825317432 6.6550859704 5.7368671242 5.1945067476 5.0265594287 165.13890734
          162.36640406 158.38795058 153.38952408 147.38780349 140.60078808 133.37660205
          125.82147689 117.96689147 109.96175584 101.91635176 93.964847347 86.333847222
          79.23451446 72.820068881 67.264805971 62.868033498 60.248136362 58.733850051
          55.780702488 50.753934397 44.954972637 39.339056122 34.273020819 29.747494834
          25.698218321 22.209474083 19.18304531 16.465958314 14.035517155 11.90637247
          10.076159758 8.55052314 7.3143648092 6.3901846734 5.8451142532 5.6765867012
          165.06569549 162.36820929 158.39299893 153.39184084 147.38964107 140.60305237
          133.3789828 125.82317792 117.96873816 109.96461706 101.91978254 93.969520707
          86.340130868 79.24263309 72.835445907 67.310867057 63.002866522 60.487799482
          59.037594957 56.200619631 51.304495765 45.583121921 39.973517695 34.886029693
          30.332072875 26.267309983 22.77406734 19.742583855 17.021528434 14.587262776
          12.446188036 10.606829206 9.0680892146 7.8197707076 6.8905945877 6.3470360023
          6.1797656705 165.00194009 162.36625862 158.39627141 153.39353004 147.39118664
          140.60503787 133.38107942 125.82479244 117.97047463 109.96727 101.92310941
          93.974059284 86.346462886 79.251726723 72.85417784 67.364460696 63.142159704
          60.714028774 59.315931039 56.575012184 51.794162624 46.142865826 40.541388192
          35.43129918 30.851578376 26.767992878 23.264289882 20.223616312 17.495028595
          15.048771984 12.887959184 11.029807537 9.4704262219 8.2078567507 7.2718714164
          6.7275396696 6.5606633035 164.95253252 162.36136671 158.39765655 153.39450615
          147.39229872 140.60665975 133.38295998 125.8262532 117.97194706 109.96966644
          101.92629786 93.978624453 86.353156566 79.261869788 72.8760521 67.4243691
          63.282781238 60.926703009 59.571327016 56.910041839 52.230048489 46.6422347
          41.050666539 35.918043103 31.311347092 27.21001979 23.693162761 20.641637807
          17.903413488 15.438292895 13.251629862 11.366288838 9.7819013878 8.5006964304
          7.5533937105 7.0030217493 6.8344177308 164.92082248 162.354172 158.39704431
          153.39469417 147.39292926 140.60788272 133.38450569 125.82761358 117.9733068
          109.97177311 101.92930744 93.983213115 86.360164953 79.272900512 72.900612388
          67.48880787 63.421224842 61.124483244 59.804201997 57.208882975 52.616264016
          47.085704392 41.505159154 36.353071693 31.720346746 27.603708873 24.075557305
          21.010394154 18.255507231 15.766000003 13.548519668 11.630567342 10.015899613
          8.710411014 7.7471127889 7.1884220518 7.0173224619 164.90782842 162.34488994
          158.39431952 153.39403781 147.39305161 140.60869512 133.38571364 125.82889703
          117.97484144 109.97387259 101.93202904 93.98741818 86.366866918 79.284418
          72.927359072 67.55612532 63.555171875 61.307252087 60.016282917 57.476148589
          52.960981451 47.482704189 41.914520458 36.746274006 32.090721856 27.95655274
          24.41689007 21.333642426 18.557339687 16.040673761 13.789005404 11.834379513
          10.183794142 8.8476683472 7.8639116555 7.2964478964 7.1233916818 164.91453386
          162.33317485 158.38927284 153.39247108 147.39263229 140.60907069 133.38656821
          125.8298323 117.97626626 109.97592824 101.93441981 93.991173073 86.373210642
          79.296349514 72.956011584 67.625376698 63.684480471 61.478622726 60.211730078
          57.718670826 53.272667917 47.842122322 42.287392769 37.105729226 32.429435153
          28.276079891 24.719157305 21.615699811 18.817261107 16.272334488 13.985250903
          11.987829904 10.291171389 8.913673259 7.8972019466 7.3104600281 7.1314475961
          164.93918367 162.31795243 158.38168532 153.39005279 147.391735 140.60899172
          133.38706522 125.83040944 117.9772771 109.9776132 101.93650807 93.994520485
          86.379290328 79.308921595 72.986798014 67.696629295 63.81043275 61.641218858
          60.394938346 57.942930189 53.555404049 48.166909131 42.625895206 37.433265367
          32.739900284 28.567480287 24.990547664 21.867475307 19.046780749 16.47328476
          14.146731058 12.095428165 10.339722786 8.9063238089 7.8374882075 7.2129455915
          7.0208827334 164.97489098 162.29725503 158.37130114 153.38671744 147.39034821
          140.60854048 133.3872784 125.8306192 117.97788966 109.97905698 101.93833157
          93.997347775 86.38512661 79.322282408 73.019939285 67.770314791 63.934356473
          61.796026613 60.568129133 58.152898499 53.814544922 48.463641403 42.937370534
          37.736955346 33.028339134 28.835900552 25.242004515 22.098727651 19.255398133
          16.651655336 14.278014756 12.160471477 10.330499256 8.8220734633 7.6778478149
          6.9954526675 6.7835120052 165.00864044 162.26823892 158.35787698 153.38233662
          147.3884299 140.60781487 133.38726758 125.83042376 117.97815098 109.98022438
          101.93965555 93.999510593 86.390592474 79.3366578 73.056230231 67.847359486
          64.058702595 61.946465331 60.736281043 58.356383343 54.062197511 48.746565027
          43.231911202 38.025903365 33.302531031 29.091838408 25.482258681 22.317341573
          19.454418057 16.816626234 14.388798186 12.192741683 10.263003476 8.6432693355
          7.3914832469 6.6334224873 6.3961272015 165.01770734 162.22799146 158.34137956
          153.37723002 147.38647666 140.60669153 133.38637618 125.82952069 117.97831267
          109.98159262 101.94083875 94.001067299 86.395268743 79.352069318 73.096450902
          67.929047843 64.186510541 62.103421205 60.909701167 58.556816744 54.30417872
          49.024292804 43.521122557 38.312003432 33.578134103 29.349688088 25.720548075
          22.539818749 19.659835094 16.986452767 14.504602659 12.216736821 10.145490188
          8.3586293877 6.9245663881 6.0399244121 5.7586527229 164.97246886 162.17795088
          158.32305369 153.37195665 147.38466865 140.60525221 133.38477334 125.82844158
          117.97877141 109.98278591 101.9409817 94.001838285 86.400099815 79.368315927
          73.13860018 68.012656106 64.314549325 62.261074185 61.081016638 58.75018633
          54.535835899 49.294012744 43.809587965 38.59959413 33.855281773 29.610585609
          25.964172959 22.781435946 19.893704384 17.205686157 14.693943786 12.328675745
          10.07793118 8.0496650981 6.2973616454 5.1604796268 4.7919183462 164.85922582
          162.12387125 158.30512029 153.3668206 147.38281083 140.60366817 133.38303325
          125.8278666 117.97961851 109.98323671 101.93986957 94.001892944 86.405146887
          79.383309636 73.176194689 68.086674788 64.426373748 62.395805015 61.226599437
          58.915761238 54.733181787 49.52509086 44.057375301 38.84474746 34.085657422
          29.827066072 26.171636141 22.997368881 20.126329852 17.482433159 15.046737186
          12.792134447 10.682130584 8.7671632103 7.0774045666 5.9293622569 5.5525266177
          164.6857362 162.06956312 158.28912694 153.36217466 147.3813269 140.60245553
          133.38144813 125.82756938 117.9804026 109.98317242 101.93894055 94.002074171
          86.408810603 79.394004829 73.202827291 68.138539109 64.503519665 62.487507546
          61.32531493 59.027297691 54.86693224 49.67672093 44.213748434 38.996556816
          34.223091612 29.949530132 26.289004121 23.123682352 20.281778395 17.705717171
          15.387982137 13.313795277 11.46395641 9.8347831766 8.4839280039 7.6165730021
          7.3411226218 164.48519128 162.01820894 158.27571822 153.35811641 147.38014235
          140.60174328 133.38027525 125.82733673 117.98103885 109.98310092 101.93866088
          94.002549072 86.410671933 79.400665545 73.219428879 68.169047926 64.547613839
          62.539880832 61.380747536 59.087912584 54.940407872 49.754992522 44.291269266
          39.069987252 34.285708526 30.000441308 26.337469518 23.179715653 20.362882584
          17.834899901 15.589984998 13.615738967 11.887658193 10.409286296 9.2364763623
          8.51065874 8.2795895292 164.30395552 161.97500775 158.26557155 153.35484002
          147.37881516 140.60101863 133.37942774 125.82728353 117.98176342 109.98336082
          101.93853033 94.002526453 86.411159074 79.403720551 73.227994845 68.184571332
          64.56870421 62.566258742 61.406447811 59.112972127 54.970870379 49.785860458
          44.320905453 39.09568328 34.303281222 30.011248317 26.348424207 23.197985126
          20.399730503 17.903443295 15.703557899 13.788514001 12.13609204 10.755297898
          9.695854868 9.0603357803 8.8619556508 164.15789597 161.94128952 158.25832832
          153.3526689 147.37791732 140.60046778 133.37876844 125.82722666 117.98234607
          109.98378191 101.93859574 94.002136592 86.410436094 79.403503562 73.230423832
          68.190104224 64.573333493 62.569103151 61.40887075 59.115809849 54.974235849
          49.786626337 44.319475259 39.091324338 34.293497471 29.997033652 26.334540558
          23.190040861 20.40555417 17.931355559 15.761595975 13.886736005 12.288050756
          10.97982647 10.004458783 9.4352260927 9.260764949 164.04835106 161.9161608
          158.25321719 153.35123186 147.37733394 140.60010302 133.37835783 125.82720027
          117.98267546 109.9837085 101.9380941 94.001380995 86.409309054 79.402199989
          73.229613705 68.188300704 64.565339325 62.552066095 61.392448698 59.101597613
          54.956117996 49.763227221 44.293624941 39.06360004 34.26191264 29.9622044
          26.299557387 23.159647923 20.386104664 17.928777872 15.780471352 13.933592571
          12.373482627 11.116148728 10.197358972 9.6712027586 9.5115241239 163.97515532
          161.89933514 158.24988007 153.35022931 147.37686803 140.59982421 133.37808311
          125.82713338 117.98266781 109.98299884 101.93696597 94.0002997 86.407840113
          79.400001364 73.226219065 68.180784296 64.548573341 62.527562463 61.365014767
          59.070334665 54.916721683 49.717462976 44.245837549 39.014983438 34.210367064
          29.907755102 26.244296425 23.107832536 20.343308751 17.899651515 15.766949876
          13.939546101 12.407389417 11.184984251 10.304755244 9.8093643615 9.6608185565
          163.93555383 161.89039653 158.24806481 153.34953439 147.37644037 140.59950369
          133.37772806 125.82691455 117.98243642 109.98211794 101.93563274 93.998759017
          86.405660077 79.396680984 73.220493474 68.168272117 64.52372217 62.494748811
          61.326928527 59.023094078 54.856645843 49.649529438 44.176254521 38.945398081