<?xml version="1.0"?>
<VTKFile type="PolyData" version="0.1" byte_order="LittleEndian" header_type="UInt32" compressor="vtkZLibDataCompressor">
  <PolyData>
    <Piece NumberOfPoints="3588" NumberOfVerts="0" NumberOfLines="0" NumberOfStrips="0" NumberOfPolys="864">
      <PointData>
      </PointData>
      <CellData>
        <DataArray type="Float64" Name="electrons_temperature" format="ascii" RangeMin="58.866676485" RangeMax="165.79529054">
          165.70692813 162.62980176 158.76252686 153.83799059 147.8812078 141.13176797
          133.93969993 126.41573709 118.59086377 110.60221092 102.56527856 94.622959195
          86.997275196 79.918267694 73.562878537 68.086834254 63.528334015 59.391598252
          165.7140039 162.63316356 158.7636203 153.83835 147.88133448 141.13180118
          133.93973335 126.41574656 118.59073909 110.60204717 102.56514262 94.622678411
          86.996699616 79.916881475 73.558846947 68.07467824 63.487809011 59.20259362
          165.72179716 162.63701889 158.76488383 153.83876184 147.88147959 141.13184017
          133.93977102 126.41575889 118.59060816 110.60187683 102.56499996 94.622384983
          86.996080681 79.915199245 73.552060693 68.04522374 63.377499392 58.945535899
          165.73037627 162.6414954 158.76636666 153.83924037 147.88164805 141.1318865
          133.9398146 126.41577472 118.59045033 110.6016448 102.56476453 94.621742351
          86.994402918 79.910166344 73.534248667 67.98570629 63.219357105 58.866676485
          165.74521994 162.64993544 158.76932101 153.84024446 147.88202609 141.13200457
          133.93993291 126.41584049 118.59005959 110.60110428 102.56440625 94.620625809
          86.991673997 79.902039638 73.509741913 67.922372855 63.107774933 58.948971655
          165.77354338 162.66898904 158.77602934 153.84257324 147.88299793 141.13245679
          133.94040696 126.41622749 118.58961484 110.60057296 102.56452372 94.619962687
          86.989661695 79.894976151 73.488634609 67.876435151 63.058831272 59.169619089
          165.79529054 162.69717053 158.78621122 153.84614072 147.88464579 141.13334068
          133.94133973 126.41704977 118.58946291 110.60070303 102.5657871 94.620645677
          86.989338498 79.890819365 73.473595736 67.847996282 63.056415705 59.450358438
          165.78856986 162.72604351 158.79738217 153.8501734 147.88684054 141.13472419
          133.94269727 126.41845076 118.59014039 110.6018557 102.56804262 94.622536694
          86.990792279 79.889769571 73.465381733 67.835319528 63.094015048 59.756232266
          165.75181882 162.75011754 158.80789929 153.85419176 147.88940469 141.13671356
          133.94466762 126.42031526 118.5915253 110.60385618 102.57084679 94.625529783
          86.994168504 79.891854428 73.46369618 67.837694977 63.164343079 60.050624669
          165.69264568 162.76815113 158.81751479 153.85807598 147.89197851 141.13906478
          133.94707404 126.42226736 118.59318956 110.60650308 102.57431838 94.629450942
          86.998828738 79.896078283 73.467255259 67.85313207 63.257246044 60.325108249
          165.62058412 162.78026894 158.82581378 153.86134411 147.8942109 141.14150131
          133.94967975 126.42442205 118.59516259 110.609359 102.57790621 94.633862856
          87.004296918 79.901554442 73.474631945 67.879304987 63.36899828 60.595882065
          165.5440947 162.78681194 158.83252783 153.86420244 147.89629114 141.14390454
          133.95228449 126.42646033 118.59717008 110.6122334 102.58132982 94.638473114
          87.010312803 79.908391313 73.485983918 67.915746713 63.49536669 60.853781135
          165.47106177 162.78867632 158.83758786 153.86653031 147.89813899 141.14617729
          133.95467695 126.42818426 118.59903887 110.61510584 102.58476497 94.643126227
          87.016533311 79.91635796 73.500951522 67.961039199 63.630271345 61.096564207
          165.40745872 162.78678373 158.84087782 153.86823505 147.89969753 141.14817355
          133.95678711 126.42982149 118.60079819 110.6177723 102.58809863 94.647651959
          87.022817409 79.925325841 73.519342482 68.014099765 63.770194107 61.326128555
          165.35816594 162.7819446 158.84228615 153.86923159 147.90082651 141.14980918
          133.95868243 126.43130527 118.60229573 110.62018568 102.59129777 94.652210971
          87.029476616 79.93537539 73.540964357 68.073742414 63.911930411 61.542254256
          165.32652231 162.77479336 158.84170283 153.86944539 147.90147839 141.15104943
          133.96024544 126.43268852 118.60368177 110.62231455 102.59432465 94.656803252
          87.036468523 79.946354837 73.565383127 68.138205443 64.051887318 61.743512048
          165.31353849 162.76554324 158.83901318 153.86882091 147.90162718 141.15188326
          133.96147397 126.43399553 118.60524128 110.6244393 102.59707341 94.661030162
          87.04318526 79.957876436 73.592117833 68.205844437 64.187667751 61.929751344
          165.32018659 162.75384783 158.83400881 153.86729287 147.90124019 141.15228522
          133.96235323 126.43495887 118.60669382 110.62652439 102.59950296 94.664827986
          87.0495793 79.96987564 73.620903429 68.275715924 64.319077772 62.10458219
          165.34470358 162.73863561 158.82647196 153.86491959 147.90038084 141.15223819
          133.96287964 126.43556956 118.60774021 110.6282485 102.60164375 94.668242498
          87.055749142 79.982586429 73.651984538 68.347901742 64.447411555 62.270698459
          165.38020839 162.71794513 158.81614839 153.86163665 147.89903824 141.15182431
          133.96312712 126.43581972 118.60839763 110.62974232 102.6035366 94.671167537
          87.061722785 79.996168664 73.685607367 68.422864825 64.574054584 62.429226774
          165.41370694 162.68894236 158.80279652 153.85731728 147.89717154 141.15114213
          133.96315659 126.43567343 118.60871402 110.63097363 102.60495366 94.673467817
          87.067386449 80.0108629 73.722591278 68.501578906 64.701542833 62.583770212
          165.42252418 162.64873189 158.78638481 153.85227861 147.89527349 141.15007089
          133.96231928 126.43483263 118.60894084 110.63241836 102.60625528 94.67520836
          87.07234304 80.026723598 73.76375965 68.585400782 64.833020868 62.745287612
          165.37712142 162.5987587 158.76815226 153.8470749 147.89352199 141.14869051
          133.96078239 126.43382352 118.60947254 110.63370712 102.60655485 94.676210727
          87.077525044 80.043565942 73.807151526 68.671638686 64.965301055 62.908024069
          165.26387368 162.54476388 158.75030884 153.842007 147.89172062 141.14716688
          133.95911084 126.43331489 118.61039268 110.63426802 102.60562442 94.676524727
          87.082951337 80.059236932 73.846156809 68.748493828 65.081505819 63.047921976
          165.09054341 162.49055197 158.73439568 153.83742315 147.89028562 141.14600689
          133.95758816 126.43307528 118.61124144 110.6343072 102.6048563 94.676941343
          87.086966159 80.070557074 73.874071705 68.802830342 65.162339973 63.143913152
          164.89023918 162.4393014 158.72105444 153.83341842 147.88914084 141.14533462
          133.95646455 126.43288891 118.61192891 110.63431911 102.60470047 94.677601508
          87.089122385 80.077727579 73.891696421 68.835267684 65.209232863 63.199504836
          164.70921963 162.39619228 158.71095747 153.83018373 147.88784713 141.14464098
          133.95565295 126.43286876 118.61268926 110.63463879 102.6046655 94.677728636
          87.089854676 80.081209557 73.901089328 68.852303911 65.232479111 63.228318557
          164.56332058 162.36254526 158.70374741 153.82803968 147.88697211 141.14411209
          133.95501931 126.43283553 118.61329746 110.6351018 102.60480191 94.677461161
          87.089342916 80.081374722 73.904240483 68.859109366 65.23893513 63.233291106
          164.453871 162.33746548 158.69865698 153.82661896 147.88640279 141.1437611
          133.9546248 126.43282457 118.61364556 110.63506354 102.60436053 94.67680622
          87.088390836 80.080395916 73.904059247 68.858427022 65.232610564 63.21837914
          164.38070657 162.32066557 158.69532985 153.82562511 147.88594467 141.14348953
          133.95435847 126.43276638 118.61365166 110.63438556 102.60328612 94.675809171
          87.08706935 80.078478442 73.901223993 68.85193147 65.217378301 63.195825284
          164.34108553 162.31173058 158.69351503 153.82493253 147.88551958 141.14317128
          133.95400662 126.43255097 118.61342817 110.6335277 102.6019955 94.674340318
          87.085019626 80.075409875 73.896008508 68.840376518 65.193980896 63.164862207
          164.33180667 162.31014722 158.69303702 153.82446545 147.88508491 141.14277614
          133.95353951 126.43216186 118.61296721 110.63244678 102.60054796 94.672618958
          87.082373662 80.071201083 73.888554946 68.824136447 65.162098785 63.122023535
          164.35029722 162.31538285 158.69376742 153.82418059 147.88461917 141.14229081
          133.95294436 126.43159713 118.61227483 110.63112718 102.59891691 94.670638876
          87.079145453 80.065894813 73.879027218 68.803588643 65.121696952 63.066750245
          164.3959025 162.32696958 158.69561464 153.82405555 147.88411353 141.14171215
          133.95221899 126.43086473 118.61136659 110.62956972 102.59700539 94.668197455
          87.075224914 80.059520498 73.867529173 68.77898475 65.072494485 62.997852891
          164.46911451 162.3445121 158.69850159 153.82407592 147.88356058 141.14101865
          133.9513071 126.42988269 118.61019309 110.62775801 102.59480154 94.66528796
          87.070577543 80.052095982 73.854160342 68.75037514 65.013816277 62.91315586
          164.57065707 162.36686172 158.70205307 153.82422021 147.88294565 141.14019894
          133.95019693 126.42864418 118.60879958 110.62575617 102.59233154 94.661917478
          87.065176334 80.043544375 73.838844037 68.717741413 64.944881663 62.809685449
          164.69789009 162.39269278 158.70603327 153.82454487 147.8823139 141.13925584
          133.94891508 126.42720374 118.60721776 110.62355266 102.5896528 94.658178269
          87.059027859 80.033766195 73.821408941 68.681127261 64.865181234 62.683761259
          164.84702205 162.42169425 158.71078193 153.82509012 147.88153886 141.13786884
          133.94724369 126.42553343 118.60544113 110.62118534 102.58682331 94.654093815
          87.052147513 80.022738924 73.801702648 68.640519641 64.774682706 62.531913948
          165.0117034 162.45304781 158.71646581 153.82590981 147.88068032 141.13611567
          133.94519345 126.42346056 118.60314788 110.61847694 102.58389461 94.649735695
          87.044597384 80.010647735 73.779880508 68.596057278 64.673963648 62.350201126
          165.18154499 162.48579096 158.72307082 153.82708692 147.87990871 141.13439253
          133.94315038 126.42117628 118.60043423 110.61519567 102.58049378 94.645057155
          87.036388381 79.997405558 73.755829522 68.5476668 64.56354671 62.132810893
          165.34678537 162.5198729 158.73080981 153.8287733 147.87951178 141.1330327
          133.94132833 126.41893387 118.59771406 110.61169827 102.57658104 94.640015071
          87.027942992 79.983070871 73.728981976 68.494489894 64.443250634 61.87200798
          165.48953698 162.55429564 158.73975505 153.8310691 147.8795536 141.13210185
          133.94007269 126.41722116 118.59532422 110.60837465 102.57249778 94.634979908
          87.019959051 79.968546657 73.699096402 68.434825595 64.312400244 61.557691637
          165.59308031 162.58536015 158.74871138 153.83361766 147.87991107 141.13165801
          133.93959506 126.41620592 118.59333193 110.60571166 102.56912621 94.630354366
          87.01239712 79.954264849 73.667996218 68.370006115 64.175854202 61.201478566
          165.65097124 162.60640359 158.75518247 153.83561749 147.88041307 141.13159925
          133.93953047 126.41579132 118.5919764 110.60386745 102.56697709 94.626698268
          87.005725667 79.940493083 73.634469837 68.299512902 64.03335522 60.80668017
          165.67471294 162.6159442 158.75820834 153.83661344 147.88074596 141.13166468
          133.93959417 126.41573681 118.5914081 110.60300386 102.56602186 94.6246773
          87.001302949 79.929670017 73.602210663 68.219538122 63.88116562 60.397264658
          165.68507984 162.62020159 158.75952101 153.83702843 147.88088212 141.13169304
          133.93962246 126.41573032 118.59123258 110.60272764 102.56573154 94.623946776
          86.999411966 79.923952616 73.581371182 68.149679017 63.721167223 59.996807752
          165.69323466 162.62366125 158.76058813 153.83736484 147.88099309 141.13171665
          133.93964611 126.41572871 118.59110583 110.60254371 102.56556445 94.623572949
          86.998564821 79.921468472 73.572234678 68.113673908 63.60868334 59.676869256
          165.70025738 162.62674696 158.76155028 153.83767173 147.88109678 141.1317403
          133.93967088 126.4157309 118.59098544 110.60237484 102.56541697 94.623251953
          86.997881722 79.919737299 73.567102194 68.098635323 63.55999459 59.497433026
        </DataArray>
        <DataArray type="Float64" Name="electrons_density" format="ascii" RangeMin="1.5740733686e+19" RangeMax="2.0356807925e+19">
          1.9967417071e+19 1.9873329772e+19 1.9747360259e+19 1.9611365492e+19 1.9463090522e+19 1.9298489814e+19
          1.9112415631e+19 1.8903294299e+19 1.8677672489e+19 1.8442150751e+19 1.8220251508e+19 1.8022314931e+19
          1.789221582e+19 1.7871538166e+19 1.801647018e+19 1.8421330456e+19 1.9184163956e+19 2.0356807925e+19
          1.9966561789e+19 1.9870316949e+19 1.9742849052e+19 1.9606543738e+19 1.9458388054e+19 1.9293671928e+19
          1.9108509841e+19 1.8899452511e+19 1.8674079032e+19 1.8438604955e+19 1.8217182108e+19 1.8019933216e+19
          1.7890880634e+19 1.7872014139e+19 1.8022310821e+19 1.8437908892e+19 1.9217048788e+19 2.0292759478e+19
          1.9965604895e+19 1.9867114387e+19 1.9737878974e+19 1.9600987481e+19 1.9452924983e+19 1.9287977081e+19
          1.9103534376e+19 1.8894857822e+19 1.86692587e+19 1.8433840734e+19 1.8212660876e+19 1.8016710708e+19
          1.7889165964e+19 1.7873220834e+19 1.8033291235e+19 1.847291827e+19 1.9203468052e+19 1.9647181668e+19
          1.9965208011e+19 1.9864486492e+19 1.973295183e+19 1.9594891362e+19 1.9446695206e+19 1.9281552891e+19
          1.9097377896e+19 1.8889778622e+19 1.8663539206e+19 1.8428212817e+19 1.8206520629e+19 1.8012398292e+19
          1.7887225257e+19 1.7875456439e+19 1.8044730151e+19 1.8478509723e+19 1.8971807259e+19 1.9094596621e+19
          1.9964286857e+19 1.9861008616e+19 1.9725605512e+19 1.9584422774e+19 1.9435058266e+19 1.9269907055e+19
          1.9085371446e+19 1.8880027857e+19 1.8655041004e+19 1.8422406342e+19 1.8202166542e+19 1.8012315431e+19
          1.7891990521e+19 1.7889007883e+19 1.8060690912e+19 1.8402655094e+19 1.8666021216e+19 1.8757847953e+19
          1.9964169127e+19 1.9860284289e+19 1.9719773303e+19 1.9571414629e+19 1.9417945723e+19 1.9253285748e+19
          1.9069996479e+19 1.886719086e+19 1.8646403338e+19 1.8418669386e+19 1.820269522e+19 1.8019736999e+19
          1.7908501275e+19 1.7912113785e+19 1.8053448352e+19 1.8269896542e+19 1.8420967958e+19 1.8505710862e+19
          1.9966706917e+19 1.9866798581e+19 1.9723442449e+19 1.9565491419e+19 1.9402653526e+19 1.9234886916e+19
          1.9054259813e+19 1.8854782842e+19 1.8638817037e+19 1.8418125939e+19 1.8208061421e+19 1.8031541219e+19
          1.7925472299e+19 1.7918323934e+19 1.8003580924e+19 1.8119679149e+19 1.8207820235e+19 1.826523506e+19
          1.996989706e+19 1.9877206866e+19 1.9734744758e+19 1.9568556599e+19 1.9393529585e+19 1.9216233196e+19
          1.9033504939e+19 1.883661178e+19 1.8622989399e+19 1.8405646326e+19 1.8198781341e+19 1.8023089214e+19
          1.7909336304e+19 1.7870262399e+19 1.788835703e+19 1.7923239617e+19 1.7951090511e+19 1.7970104257e+19
          1.9970770711e+19 1.9881722483e+19 1.974041881e+19 1.9568834512e+19 1.9382714004e+19 1.919211526e+19
          1.9000763685e+19 1.8801020365e+19 1.8586396074e+19 1.8367171299e+19 1.8157639577e+19 1.7974612162e+19
          1.7839002081e+19 1.7754456098e+19 1.7704702558e+19 1.7667955432e+19 1.7637357694e+19 1.7618039368e+19
          1.9970825219e+19 1.9882957535e+19 1.9742763558e+19 1.9567343419e+19 1.9370650531e+19 1.9166310588e+19
          1.896292941e+19 1.8754755838e+19 1.8536206205e+19 1.831398826e+19 1.8097513627e+19 1.7899338062e+19
          1.7733935548e+19 1.7600850721e+19 1.7487902817e+19 1.7386544149e+19 1.7301576863e+19 1.7247752865e+19
          1.9971051393e+19 1.9884298089e+19 1.9744751353e+19 1.9565712429e+19 1.9361339398e+19 1.9147206037e+19
          1.8933426022e+19 1.8716514435e+19 1.8490677466e+19 1.8261213131e+19 1.8034230625e+19 1.7816708634e+19
          1.7618062119e+19 1.7437350782e+19 1.7268293734e+19 1.711217093e+19 1.6982941092e+19 1.6902557327e+19
          1.9971457659e+19 1.9886190301e+19 1.9748897008e+19 1.9570194164e+19 1.9361776274e+19 1.914001491e+19
          1.8917298194e+19 1.8691374263e+19 1.845690506e+19 1.8217030434e+19 1.7975736169e+19 1.7737039782e+19
          1.7505665728e+19 1.7281759469e+19 1.7065578262e+19 1.6866161997e+19 1.670369709e+19 1.6604047867e+19
          1.9972141269e+19 1.988903153e+19 1.9755011133e+19 1.9578773295e+19 1.93695593e+19 1.9143049927e+19
          1.8912416099e+19 1.8677199354e+19 1.8434271783e+19 1.8183818347e+19 1.7926479878e+19 1.7665087865e+19
          1.7403042107e+19 1.7142669508e+19 1.6889207546e+19 1.6657279227e+19 1.6470928342e+19 1.6357942131e+19
          1.9972929406e+19 1.9892164244e+19 1.9761687647e+19 1.958886185e+19 1.9381052595e+19 1.9152110701e+19
          1.8915816154e+19 1.867367273e+19 1.8422278844e+19 1.81602322e+19 1.7886617724e+19 1.7602904232e+19
          1.7313703085e+19 1.7024365888e+19 1.6743212174e+19 1.6488378491e+19 1.6286088298e+19 1.6164574421e+19
          1.9973639169e+19 1.9894973134e+19 1.9767718693e+19 1.9598359666e+19 1.9392883444e+19 1.9163842908e+19
          1.892481347e+19 1.8676862367e+19 1.8417634494e+19 1.8145905678e+19 1.7858480326e+19 1.7556142503e+19
          1.7244656115e+19 1.6932125943e+19 1.6630066557e+19 1.635904733e+19 1.6146128957e+19 1.6019174336e+19
          1.9974199569e+19 1.9897218185e+19 1.977264368e+19 1.9606497228e+19 1.9403975556e+19 1.9176595692e+19
          1.8937149408e+19 1.8686104396e+19 1.8420487444e+19 1.8140616579e+19 1.7842960067e+19 1.7526687881e+19
          1.7197870025e+19 1.686660734e+19 1.6548253109e+19 1.6265399505e+19 1.6045157131e+19 1.5914653628e+19
          1.9974594865e+19 1.9898813675e+19 1.9776195816e+19 1.9612695887e+19 1.9413511867e+19 1.9189532625e+19
          1.8952520345e+19 1.8702423846e+19 1.8434023242e+19 1.8147061707e+19 1.7839416375e+19 1.7510449935e+19
          1.7167190523e+19 1.6821513133e+19 1.6490686744e+19 1.6198388692e+19 1.5971886912e+19 1.5838239896e+19
          1.9974766728e+19 1.9899384582e+19 1.9777482938e+19 1.9615507272e+19 1.9419641496e+19 1.9200372744e+19
          1.8967730614e+19 1.8720596266e+19 1.8452969343e+19 1.8162155729e+19 1.7846173171e+19 1.7506832502e+19
          1.7152052455e+19 1.6795319092e+19 1.6455458583e+19 1.6156613213e+19 1.5925783763e+19 1.5789864607e+19
          1.9974545112e+19 1.9898508322e+19 1.9776076483e+19 1.9615050176e+19 1.9422602061e+19 1.9208761967e+19
          1.898202925e+19 1.873940399e+19 1.847339858e+19 1.8180802424e+19 1.7860143188e+19 1.7513721682e+19
          1.7150268892e+19 1.6785347447e+19 1.6439277227e+19 1.6136582346e+19 1.5903911336e+19 1.5767252609e+19
          1.9973874902e+19 1.9896035276e+19 1.9771856666e+19 1.9611597604e+19 1.9423735857e+19 1.9217570765e+19
          1.8999035556e+19 1.8762251002e+19 1.8498395354e+19 1.8205034509e+19 1.7880924159e+19 1.7528411927e+19
          1.7157733328e+19 1.6784938668e+19 1.6432263061e+19 1.612550529e+19 1.5890524396e+19 1.5752883533e+19
          1.9972984198e+19 1.9892615526e+19 1.9765984146e+19 1.9607136926e+19 1.9426791732e+19 1.9232720018e+19
          1.9024912834e+19 1.8793291736e+19 1.8529860373e+19 1.8234503843e+19 1.7906663519e+19 1.7549055945e+19
          1.7172740679e+19 1.6793243513e+19 1.6433524001e+19 1.6120731923e+19 1.5881105242e+19 1.5740733686e+19
          1.9971975901e+19 1.9889208836e+19 1.9762978598e+19 1.9611199272e+19 1.9443263444e+19 1.9261544111e+19
          1.9061694217e+19 1.883287631e+19 1.8569982487e+19 1.8274264871e+19 1.7943192222e+19 1.7578070416e+19
          1.7193840359e+19 1.6811178939e+19 1.644877368e+19 1.6131592194e+19 1.5887835679e+19 1.5744699638e+19
          1.9972710321e+19 1.9893092137e+19 1.9776053335e+19 1.9638318041e+19 1.9483643647e+19 1.9309939083e+19
          1.9112744377e+19 1.8883042861e+19 1.8618614389e+19 1.8320371661e+19 1.798412756e+19 1.7612946462e+19
          1.7223303614e+19 1.6837683089e+19 1.6473394929e+19 1.6153808134e+19 1.5908188605e+19 1.5763952461e+19
          1.9977437075e+19 1.9911514141e+19 1.9812188986e+19 1.9689174901e+19 1.9542256206e+19 1.9370196924e+19
          1.917146633e+19 1.8938713705e+19 1.8669828765e+19 1.8365090065e+19 1.8020988621e+19 1.764570727e+19
          1.7254458242e+19 1.6863805567e+19 1.64944333e+19 1.6171381668e+19 1.5923654323e+19 1.5778368968e+19
          1.9983581695e+19 1.993420621e+19 1.9853563866e+19 1.9743846918e+19 1.9602138431e+19 1.9428345899e+19
          1.9224726483e+19 1.898684359e+19 1.8711102856e+19 1.839832775e+19 1.8047522431e+19 1.7667836185e+19
          1.7272726562e+19 1.6876006057e+19 1.6501511504e+19 1.6176152664e+19 1.5927591363e+19 1.5782265855e+19
          1.9987184177e+19 1.9947922069e+19 1.9880106742e+19 1.9781102331e+19 1.9645346459e+19 1.9471047272e+19
          1.9262266079e+19 1.9017941068e+19 1.8735021413e+19 1.8415282077e+19 1.8060741032e+19 1.7677430545e+19
          1.7277961727e+19 1.6879734549e+19 1.6503944847e+19 1.6177894127e+19 1.5930546726e+19 1.5786558908e+19
          1.9988132659e+19 1.9951913387e+19 1.988892883e+19 1.979471309e+19 1.9662575099e+19 1.9489859377e+19
          1.9280003434e+19 1.9032643659e+19 1.8745361037e+19 1.8420172262e+19 1.806081152e+19 1.7674415029e+19
          1.727392005e+19 1.6877072394e+19 1.6503352243e+19 1.6179996445e+19 1.5936242603e+19 1.579449578e+19
          1.9988065498e+19 1.9951749347e+19 1.9889152815e+19 1.9795877037e+19 1.9664691483e+19 1.9492183421e+19
          1.9281537029e+19 1.9033011831e+19 1.8744446387e+19 1.8417697059e+19 1.8054152427e+19 1.7661117558e+19
          1.7255233582e+19 1.6856205984e+19 1.6485545289e+19 1.6167951879e+19 1.5928616701e+19 1.5789497602e+19
          1.9987668426e+19 1.9950246041e+19 1.9886328838e+19 1.9792054739e+19 1.9659955005e+19 1.9486279403e+19
          1.9274199304e+19 1.9024007565e+19 1.8733687864e+19 1.8404905336e+19 1.8038627194e+19 1.7642996478e+19
          1.7235732067e+19 1.6836592824e+19 1.6466776486e+19 1.6150204045e+19 1.5911474601e+19 1.577313183e+19
          1.9987184302e+19 1.9948376198e+19 1.9882545018e+19 1.9786328815e+19 1.9652444722e+19 1.9477112462e+19
          1.9263166845e+19 1.9010333517e+19 1.8716836088e+19 1.8385275128e+19 1.8019238792e+19 1.7626895747e+19
          1.7222845921e+19 1.6825943764e+19 1.6457935173e+19 1.6143228901e+19 1.5906056664e+19 1.5768684658e+19
          1.9986736446e+19 1.9946626324e+19 1.9878889719e+19 1.9780532314e+19 1.9644492746e+19 1.9467119652e+19
          1.925135087e+19 1.8996988749e+19 1.8702459938e+19 1.8370664031e+19 1.8005402077e+19 1.7615389657e+19
          1.721524304e+19 1.6822547934e+19 1.6458211743e+19 1.6146574428e+19 1.5911696693e+19 1.5775534384e+19
          1.9986398259e+19 1.9945299708e+19 1.9876062447e+19 1.9775900001e+19 1.9637935609e+19 1.9458798753e+19
          1.9241787893e+19 1.8987008984e+19 1.8693137595e+19 1.8363190308e+19 1.800088399e+19 1.761466347e+19
          1.7218686303e+19 1.6830036301e+19 1.6469251076e+19 1.6160453986e+19 1.592758837e+19 1.5792537304e+19
          1.9986216464e+19 1.9944579925e+19 1.9874474055e+19 1.9773131817e+19 1.9633780305e+19 1.9453432219e+19
          1.9235914652e+19 1.8981766497e+19 1.8690001334e+19 1.8363840719e+19 1.8007019109e+19 1.7626784904e+19
          1.7235871557e+19 1.685145314e+19 1.6494255227e+19 1.6188143508e+19 1.5957039432e+19 1.5822904638e+19
          1.9986227967e+19 1.9944606924e+19 1.9874369804e+19 1.977250604e+19 1.963229023e+19 1.9451293685e+19
          1.9234044247e+19 1.8981510131e+19 1.8692878629e+19 1.8371768723e+19 1.8021997077e+19 1.7649867565e+19
          1.7266874791e+19 1.6889193561e+19 1.6537418822e+19 1.6235389444e+19 1.6006874451e+19 1.5874071429e+19
          1.9986628615e+19 1.9946028204e+19 1.9876326696e+19 1.9773969401e+19 1.9632785501e+19 1.9451015003e+19
          1.9234084843e+19 1.8983661149e+19 1.8699401246e+19 1.8385575095e+19 1.8045987642e+19 1.7685756956e+19
          1.73148188e+19 1.6947763018e+19 1.6604218734e+19 1.6307904497e+19 1.6082970412e+19 1.5951989572e+19
          1.9987110037e+19 1.9947880903e+19 1.9879257775e+19 1.9776672652e+19 1.9634672835e+19 1.9452325808e+19
          1.9235806793e+19 1.8987975517e+19 1.8709699655e+19 1.8405536299e+19 1.8078997206e+19 1.7734811343e+19
          1.7381059928e+19 1.7029633944e+19 1.6698232114e+19 1.6410193999e+19 1.6190467792e+19 1.6062144952e+19
          1.9987394609e+19 1.9949047892e+19 1.9881779879e+19 1.9780056726e+19 1.9638223699e+19 1.9456240838e+19
          1.924035526e+19 1.8995234932e+19 1.8723601063e+19 1.8430185744e+19 1.8119462129e+19 1.7795783649e+19
          1.7464695749e+19 1.7134902043e+19 1.6821338856e+19 1.654623773e+19 1.633491769e+19 1.6211115134e+19
          1.9987889629e+19 1.9950639624e+19 1.988422289e+19 1.9782281528e+19 1.9639236788e+19 1.945687659e+19
          1.9243346912e+19 1.9004201187e+19 1.8741440647e+19 1.8459702459e+19 1.8165970948e+19 1.7865988116e+19
          1.756333553e+19 1.7262415632e+19 1.6974180189e+19 1.6718579831e+19 1.6520552048e+19 1.6404104447e+19
          1.9988842309e+19 1.9953631101e+19 1.9887950858e+19 1.9784558625e+19 1.9639114478e+19 1.9455842573e+19
          1.924558546e+19 1.9013302863e+19 1.8760126598e+19 1.8492844515e+19 1.8218712515e+19 1.7944413471e+19
          1.7675852804e+19 1.7413100769e+19 1.7159189985e+19 1.692992912e+19 1.6750628591e+19 1.6645014483e+19
          1.9990174913e+19 1.9957300729e+19 1.989146932e+19 1.9785662507e+19 1.9638006707e+19 1.9456057206e+19
          1.9250603925e+19 1.9024517976e+19 1.8779291357e+19 1.8524485816e+19 1.8269835978e+19 1.8022846944e+19
          1.7793653065e+19 1.7580255593e+19 1.7372762639e+19 1.717836777e+19 1.7024005018e+19 1.6933897117e+19
          1.9990156344e+19 1.9954991546e+19 1.9883785554e+19 1.9773253264e+19 1.9624832203e+19 1.9446046573e+19
          1.9245333482e+19 1.902622292e+19 1.8788905807e+19 1.8543278986e+19 1.8303874307e+19 1.8082183837e+19
          1.7895464561e+19 1.7740837081e+19 1.7593284426e+19 1.7442142283e+19 1.731465238e+19 1.7242283246e+19
          1.9984957973e+19 1.9936560724e+19 1.9851845771e+19 1.9733996093e+19 1.9585813411e+19 1.9411344271e+19
          1.9216087749e+19 1.9003092175e+19 1.8771365566e+19 1.8530110467e+19 1.8301131264e+19 1.8098009019e+19
          1.7945355635e+19 1.7850547377e+19 1.7779064594e+19 1.7683137209e+19 1.7573713713e+19 1.7510935905e+19
          1.9977009826e+19 1.9909263084e+19 1.9807366751e+19 1.9681799386e+19 1.9533776994e+19 1.9364631279e+19
          1.917401473e+19 1.8962842241e+19 1.8734296122e+19 1.8495726708e+19 1.8271884837e+19 1.8075354064e+19
          1.7939626697e+19 1.7890714317e+19 1.7905988952e+19 1.7901527708e+19 1.7808104023e+19 1.7733788777e+19
          1.9972017397e+19 1.9889989519e+19 1.9774724167e+19 1.9642989683e+19 1.9494616178e+19 1.9328633354e+19
          1.9139740647e+19 1.8928858735e+19 1.8701588949e+19 1.8464868201e+19 1.8242435649e+19 1.8045841027e+19
          1.7915247595e+19 1.7889571449e+19 1.7979356937e+19 1.8121938296e+19 1.8100953058e+19 1.7963462877e+19
          1.9970822027e+19 1.9884108717e+19 1.9763246207e+19 1.9628342091e+19 1.947954429e+19 1.9314226603e+19
          1.9125290294e+19 1.8914662142e+19 1.8686462145e+19 1.8449599501e+19 1.8226369456e+19 1.8028391299e+19
          1.7898586493e+19 1.787878293e+19 1.8009866551e+19 1.8308157324e+19 1.8539915406e+19 1.8326998524e+19
          1.9970689714e+19 1.9882387625e+19 1.9759539526e+19 1.9623651441e+19 1.9474866152e+19 1.9309892073e+19
          1.912129313e+19 1.8911320675e+19 1.8683293372e+19 1.8446873395e+19 1.8223569476e+19 1.8024889846e+19
          1.789395393e+19 1.7873536571e+19 1.8015868771e+19 1.8395070557e+19 1.8980374327e+19 1.9102809813e+19
          1.9969446723e+19 1.98794798e+19 1.9755718088e+19 1.9619730793e+19 1.9471126055e+19 1.9306336533e+19
          1.9118453763e+19 1.890905161e+19 1.8681868012e+19 1.8445970617e+19 1.8223121335e+19 1.8024592359e+19
          1.7893410221e+19 1.7871778382e+19 1.8012728583e+19 1.8408824072e+19 1.9144290008e+19 2.0067883239e+19
          1.996834087e+19 1.9876360253e+19 1.9751631793e+19 1.961571038e+19 1.9467287654e+19 1.9302627776e+19
          1.911560793e+19 1.8906451384e+19 1.8680182635e+19 1.8444548026e+19 1.8222148542e+19 1.8023852644e+19
          1.7893034793e+19 1.7871423525e+19 1.8013191457e+19 1.8412364137e+19 1.9165368573e+19 2.0322333914e+19
        </DataArray>
        <DataArray type="Float64" Name="ions_0_temperature" format="ascii" RangeMin="55.484377011" RangeMax="168.09555422">
          167.4544389 161.85749096 155.48238588 148.99818476 142.36012251 135.66737149
          128.99182106 122.24433223 115.32061781 108.18628229 100.98849536 93.788359258
          86.659904926 79.81909417 73.224838214 66.96158559 61.078711017 55.485696715
          167.55119461 161.9487677 155.5684223 149.07679788 142.42874125 135.72777848
          129.04346219 122.28772797 115.35682374 108.21422354 101.0107446 93.802720866
          86.669215668 79.822129751 73.212860302 66.917968035 60.985831187 55.484377011
          167.65194625 162.0492088 155.66566049 149.16559361 142.50541975 135.79368193