<?xml version="1.0"?>
<VTKFile type="PolyData" version="0.1" byte_order="LittleEndian" header_type="UInt32" compressor="vtkZLibDataCompressor">
  <PolyData>
    <Piece NumberOfPoints="3588" NumberOfVerts="0" NumberOfLines="0" NumberOfStrips="0" NumberOfPolys="3456">
      <PointData>
      </PointData>
      <CellData>
        <DataArray type="Float64" Name="electrons_temperature" format="ascii" RangeMin="0.28175448483" RangeMax="165.79529054">
          0.41488784694 0.46013429762 0.51111613819 0.57456535186 0.64202566212 0.70572505256
          0.76586644892 0.82301303483 0.87755219047 0.93115559354 1.0064000141 1.1030603666
          1.1910914242 1.2690385743 1.3387490215 1.4287881987 1.5597594202 1.6774853844
          1.7952043357 2.0720651794 2.7851097896 4.5811547136 7.502689224 9.9540885878
          11.557429424 11.470982418 10.459409767 9.4469590848 8.0317267679 6.0381719993
          4.1183276479 2.482007628 1.067007819 0.53588400066 0.353743562 0.28175448483
          0.46710684371 0.5214623582 0.5836624076 0.66091279168 0.74189334729 0.81831155479
          0.8913944558 0.96198340726 1.0303825058 1.0984338176 1.1954819327 1.3203577188
          1.4356823361 1.5424775108 1.6419174557 1.7752369527 1.9739415992 2.1472719646
          2.3216122066 2.7888306859 4.0142235348 5.9876502185 8.0807360757 10.153035862
          11.643607851 11.53523596 10.521535781 9.4889448207 8.0697152564 6.0835628177
          4.1724905138 2.5572681023 1.1693795117 0.58384007395 0.37158618974 0.28945049753
          0.55505384506 0.62098613261 0.69708562247 0.79325570481 0.89570754321 0.99332736751
          1.0871292306 1.1774617579 1.2648779436 1.3545590027 1.4863967062 1.6566133857
          1.8150724489 1.9640835595 2.1050543876 2.2976665421 2.5818912277 2.8193179847
          3.0728333864 3.8197951451 5.5923332942 7.3342741683 8.7572947503 10.379674651
          11.740525063 11.600953418 10.583400362 9.5333683374 8.1088432663 6.1293625299
          4.2276066539 2.6295449537 1.257066533 0.61390530421 0.3833392717 0.30042926514
          0.72807575357 0.81635723379 0.91885754502 1.0505379506 1.1944448264 1.3330300599
          1.4661689459 1.5940479365 1.7178702884 1.8457779039 2.0355912888 2.2805184447
          2.5107241712 2.7295021149 2.93910492 3.2296324528 3.6409837133 3.9659588026
          4.3318379884 5.3959103315 7.366454397 8.6035668657 9.4643473406 10.635500239
          11.846633054 11.669477708 10.646668596 9.5799643741 8.1498637461 6.1773800185
          4.2844090573 2.6971428574 1.3356198365 0.63862761369 0.3906312069 0.30174026448
          0.96655034496 1.093429563 1.2416078743 1.4305342335 1.6349413286 1.831186688
          2.0202548323 2.2002691132 2.3739798033 2.5570044615 2.8335140075 3.1928134607
          3.5330748234 3.8559097972 4.1648812568 4.5923041329 5.181828651 5.6246972309
          6.0999867979 7.3894342918 9.2383593724 9.884915271 10.173954497 10.922810294
          11.961646767 11.742264318 10.710589945 9.6275314148 8.1930537106 6.228263119
          4.3434515217 2.7641138684 1.4114900155 0.66435375974 0.40153908918 0.31127817112
          1.259471883 1.4263602561 1.6195612221 1.8676640114 2.1386746565 2.4004240992
          2.6568159273 2.9057858327 3.1505316042 3.4118504971 3.8089109092 4.3218119916
          4.8000361459 5.2482380844 5.6718639368 6.2479791143 7.0419316523 7.6241962645
          8.1947864592 9.5845563496 11.172180539 11.286416557 10.9463863 11.250600575
          12.084086785 11.817678855 10.77747028 9.6778575912 8.236542621 6.2787491593
          4.4038176772 2.8344551223 1.4888172815 0.68932312827 0.41555913592 0.32159840278
          1.563579336 1.7734407362 2.0174128897 2.33171345 2.6789194699 3.0180023992
          3.3519777003 3.68290451 4.0117165693 4.3574326525 4.8745506649 5.5353738044
          6.1448399469 6.7109686442 7.2396414593 7.9461564254 8.9223814541 9.6537300203
          10.322962874 11.852787751 13.231813892 12.884104495 11.859435451 11.629409423
          12.214591866 11.893900688 10.848127472 9.7317935331 8.281528529 6.3325355885
          4.4677990186 2.9046006049 1.5655292609 0.71986562584 0.43327995203 0.33608758697
          1.8411377218 2.1085055354 2.418418218 2.8145869598 3.2501466836 3.6784396398
          4.0972581733 4.5091434034 4.9158280631 5.3300621422 5.9329201794 6.712205243
          7.4339114348 8.1052295789 8.7294830396 9.5539874591 10.706520376 11.597769358
          12.400443833 14.166611072 15.401272748 14.684808844 13.068571999 12.118962094
          12.364773813 11.971832007 10.917102366 9.7872055962 8.3288356516 6.3840019982
          4.5284217369 2.9714353287 1.6402081345 0.75714614834 0.45630375008 0.35747179778
          2.1268021532 2.4578790837 2.8285668453 3.293218557 3.8080276294 4.3113536289
          4.8001469594 5.2759160911 5.7411192596 6.2125608394 6.8960973983 7.7882117963
          8.6180743149 9.3899706052 10.107110969 11.048600885 12.376189972 13.424653956
          14.363598383 16.402296103 17.533255478 16.57265627 14.609263255 12.878214569
          12.567624282 12.060269594 10.987996169 9.8429997746 8.376814761 6.4335792548
          4.5891384193 3.0418515718 1.7153428769 0.80281684366 0.4753799702 0.37309370028
          2.3795165667 2.7641743973 3.1938156526 3.7303521204 4.3164492997 4.8842952856
          5.4292774074 5.9552406988 6.4617188443 6.9769312181 7.7270523907 8.7109523122
          9.6334574563 10.498928487 11.308290901 12.374760437 13.905010212 15.136368174
          16.216832723 18.529211374 19.55661381 18.400017634 16.257885379 13.982742831
          12.918153447 12.167577719 11.063363021 9.9006674322 8.4254575612 6.4861579695
          4.6558805475 3.1209434686 1.7959667951 0.85436637993 0.49666600292 0.38332417652
          2.5662358783 2.9995265062 3.4904790694 4.0984511674 4.7499477386 5.3769133699
          5.9785092565 6.55886606 7.1047285223 7.6499677992 8.4451457647 9.502205441
          10.505322073 11.455445271 12.348445568 13.532258518 15.299576911 16.766124554
          18.031021835 20.64293017 21.494939184 20.134177202 17.837258604 15.297148874
          13.511941628 12.317562394 11.146651435 9.9600620368 8.4737532318 6.5366594688
          4.7186645974 3.1985232286 1.8769664001 0.91060720768 0.52227094321 0.411067064
          2.6810811372 3.1831818032 3.7412802205 4.4074568337 5.1063113805 5.7756308554
          6.4154296684 7.0320461962 7.6148835654 8.1932346792 9.0356471696 10.167828558
          11.251781778 12.285672499 13.254253276 14.545476546 16.548996659 18.282659866
          19.772711041 22.712069839 23.325794561 21.786854882 19.317883923 16.623194108
          14.310124614 12.579356387 11.244033178 10.020190077 8.5218410546 6.5908722122
          4.7805382078 3.2725073874 1.9603180433 0.98048315991 0.55476016222 0.42346301217
          2.7450412367 3.287579089 3.8989331886 4.6283691767 5.3852694069 6.0976964969
          6.7696483809 7.4095044997 8.0167103345 8.6206736047 9.5004961062 10.699154327
          11.860145029 12.988554925 14.04134638 15.438013096 17.687965753 19.716548403
          21.460181221 24.74872902 25.092331947 23.361728574 20.701209017 17.870436749
          15.217124923 12.990283719 11.377576589 10.090486282 8.5685921941 6.6445315742
          4.8426558585 3.3437683793 2.0428965885 1.0541659514 0.58397479696 0.45033875498
          2.7427365286 3.3105345613 3.957437804 4.7470355483 5.5697139222 6.3311462471
          7.0442311846 7.7260950952 8.3613912702 8.9745505121 9.8721831921 11.121935827
          12.341989309 13.543342253 14.685294258 16.202248967 18.719603246 21.107388724
          23.162209759 26.7455488 26.821031053 24.867570775 22.002777656 19.012975367
          16.142675029 13.485978818 11.5595197 10.160888925 8.6170941241 6.700916777
          4.9093257139 3.4185967777 2.1300638888 1.141874099 0.63067164846 0.48721742766
          2.6720639934 3.2873471984 3.9775046993 4.817212184 5.698546557 6.4949012934
          7.2241656852 7.9299262276 8.5932447031 9.2359514039 10.168652832 11.460998419
          12.724029421 13.973737792 15.184976577 16.824641033 19.603115877 22.405769883
          24.944579282 28.719847045 28.50597593 26.286673759 23.222210743 20.018257273
          16.978855533 13.994494807 11.774225462 10.227254214 8.6725238054 6.7594173324
          4.9792619103 3.4997108248 2.222467509 1.2323966454 0.68619919638 0.52218037101
          2.5955579293 3.2533515129 3.9948203216 4.8586796965 5.7440636114 6.559755951
          7.3128698282 8.0362540015 8.7247571278 9.4103344305 10.391728416 11.718300251
          13.016248694 14.321843265 15.597568733 17.342810993 20.385227156 23.587603925
          26.897203246 30.74184995 30.14778808 27.608338776 24.341209523 20.881907755
          17.668027971 14.467608621 12.001876999 10.302021476 8.7290643071 6.8163201004
          5.0451573336 3.573075066 2.3085405957 1.3219327601 0.75791641298 0.58483599066
          2.5184503556 3.2122067733 3.9733983201 4.8291483433 5.7041083552 6.5382097072
          7.3271851946 8.0807705627 8.8006045636 9.5244048444 10.55325332 11.918175121
          13.236646163 14.567875423 15.909497447 17.771728157 21.094027272 24.680049969
          28.927004465 32.718878612 31.742213177 28.860217885 25.297902229 21.59648728
          18.200337907 14.856937545 12.214633055 10.380919214 8.7852008066 6.8776528294
          5.1129439512 3.6414961022 2.3957942079 1.4213803838 0.84630911464 0.65583184344
          2.4809102835 3.1944221792 3.9300370251 4.7682846011 5.6546252624 6.504968495
          7.3175634891 8.1001382869 8.8568368853 9.6257060386 10.672601983 12.043977146
          13.387132285 14.741720624 16.132941164 18.109458552 21.679321758 25.761775479
          30.866099733 34.712961241 33.254136221 30.008077753 26.052929698 22.157985456
          18.599752081 15.162336394 12.405954393 10.466258859 8.8424490401 6.9425327745
          5.1918675697 3.7169409135 2.4858512732 1.527027848 0.94682133538 0.74506987428
          2.4113869309 3.1262172097 3.8556998926 4.6993881093 5.5980938508 6.4599509583
          7.2884856937 8.0927260156 8.8849041301 9.678616011 10.723418339 12.090259672
          13.460019898 14.853536383 16.289344576 18.363604215 22.117389576 26.764760914
          32.927299112 36.703209115 34.563342208 30.919448891 26.605758391 22.574936478
          18.897046263 15.405552889 12.576042871 10.555173864 8.9050637471 7.0137565603
          5.2748319601 3.798698278 2.578238544 1.6388311897 1.0562028609 0.83690956137
          2.3667806209 3.0784660033 3.8067717655 4.6539286397 5.5571269559 6.424541092
          7.2605531037 8.0745449349 8.8821498478 9.6840931304 10.731513312 12.096971094
          13.479634691 14.898636639 16.381117535 18.52803917 22.439226398 27.537378897
          35.449543997 38.460523303 35.646712331 31.563081443 27.004669082 22.881765435
          19.127401886 15.6131306 12.731613009 10.649318344 8.9699544222 7.0776312242
          5.3487796851 3.885329329 2.6770487922 1.7522494869 1.1593047902 0.92354204069
          2.3217656028 3.030019731 3.7601802682 4.6110596212 5.5178966857 6.3903704582
          7.2323785602 8.0528292433 8.8659804109 9.6754883576 10.72764172 12.090425656
          13.481499296 14.917589372 16.437597217 18.633476078 22.672454191 28.119731636
          38.387501743 40.017505502 36.559261878 32.039866054 27.309257055 23.121484546
          19.323847489 15.804602405 12.881738792 10.747624547 9.0348612662 7.1402766104
          5.4251560191 3.9690574584 2.7651124671 1.8571852613 1.2595834591 1.0162529413
          2.2785832881 2.9830707127 3.7188599003 4.575322405 5.4843338288 6.3601947888
          7.2054268128 8.0280083152 8.8400901388 9.6551659317 10.714958898 12.07772337
          13.475163851 14.922252068 16.464053793 18.684815399 22.809311166 28.529452285
          41.538590391 41.37503654 37.2572956 32.393860104 27.549420539 23.327721773
          19.506725963 15.989636662 13.030773534 10.849931332 9.1041593294 7.2107456812
          5.5089048704 4.052369317 2.8465312696 1.9609910575 1.3719575229 1.1076909575
          2.2456752475 2.9465803753 3.6905013276 4.5530582981 5.4634001427 6.3417669814
          7.1890776306 8.0125085203 8.8227359169 9.6413833283 10.705779809 12.069483733
          13.469762061 14.920493093 16.467876792 18.695523078 22.857602674 28.709909599
          44.386418311 42.311998005 37.721502783 32.653540578 27.75744505 23.522106695
          19.686619798 16.173073581 13.180593066 10.960390825 9.1821080035 7.2876464285
          5.5943944801 4.1395585204 2.9389211863 2.0661506144 1.4691223772 1.1966863588
          2.2244914088 2.9220871907 3.6742690733 4.5419973767 5.4525613736 6.3320936539
          7.1801357835 8.0032239289 8.8108271733 9.6314008327 10.698795953 12.064269791
          13.466750182 14.919770473 16.469570301 18.698598308 22.871231229 28.765806128
          46.421734217 42.839889006 38.04019026 32.871871841 27.958749247 23.717573104
          19.869699639 16.357703756 13.330816984 11.065519549 9.2525259424 7.3558208033
          5.6731343679 4.2248324964 3.0290646901 2.1706874417 1.5716804095 1.2849715903
          165.70692813 162.62980176 158.76252686 153.83799059 147.8812078 141.13176797
          133.93969993 126.41573709 118.59086377 110.60221092 102.56527856 94.622959195
          86.997275196 79.918267694 73.562878537 68.086834254 63.528334015 59.391598252
          47.802031398 43.208804353 38.311781672 33.086607498 28.171287216 23.923879873
          20.060851205 16.546517565 13.487229521 11.169048905 9.319932619 7.4169448492
          5.7431032593 4.3074794513 3.1224672005 2.2753575072 1.6735428316 1.3681930894
          165.7140039 162.63316356 158.7636203 153.83835 147.88133448 141.13180118
          133.93973335 126.41574656 118.59073909 110.60204717 102.56514262 94.622678411
          86.996699616 79.916881475 73.558846947 68.07467824 63.487809011 59.20259362
          49.554767123 43.885056619 38.612717116 33.333419931 28.416479591 24.152782155
          20.267010646 16.74465216 13.654381288 11.276918397 9.387752893 7.482771828
          5.8157640211 4.3888928538 3.2139856165 2.3676394987 1.77277011 1.4516222978
          165.72179716 162.63701889 158.76488383 153.83876184 147.88147959 141.13184017
          133.93977102 126.41575889 118.59060816 110.60187683 102.56499996 94.622384983
          86.996080681 79.915199245 73.552060693 68.04522374 63.377499392 58.945535899
          51.755224658 45.715702771 39.632531369 33.861705534 28.776990944 24.43223563
          20.505962359 16.97009631 13.847627995 11.402049706 9.459069199 7.5523566182
          5.8903329949 4.4682358181 3.3061845253 2.4614275413 1.8699116135 1.5329268849
          165.73037627 162.6414954 158.76636666 153.83924037 147.88164805 141.1318865
          133.9398146 126.41577472 118.59045033 110.6016448 102.56476453 94.621742351
          86.994402918 79.910166344 73.534248667 67.98570629 63.219357105 58.866676485
          53.713007949 48.142300878 41.67161941 35.271661644 29.795134205 25.15414628
          21.019292497 17.357210129 14.130731183 11.58477215 9.5596354115 7.6336178513
          5.9696255432 4.5459267049 3.3946980832 2.5566994307 1.9657723693 1.6209674435
          165.74521994 162.64993544 158.76932101 153.84024446 147.88202609 141.13200457
          133.93993291 126.41584049 118.59005959 110.60110428 102.56440625 94.620625809
          86.991673997 79.902039638 73.509741913 67.922372855 63.107774933 58.948971655
          55.269324158 50.219672004 43.783475083 37.261593836 31.515700205 26.5813666
          22.15875522 18.305672092 14.864622714 12.06339534 9.7693932449 7.7337592783
          6.0602175392 4.6307470418 3.4907315605 2.6605073097 2.0642754221 1.7083198245
          165.77354338 162.66898904 158.77602934 153.84257324 147.88299793 141.13245679
          133.94040696 126.41622749 118.58961484 110.60057296 102.56452372 94.619962687
          86.989661695 79.894976151 73.488634609 67.876435151 63.058831272 59.169619089
          56.353855593 51.788943725 45.502639366 39.060336 33.267485538 28.246140261
          23.693123666 19.735845929 16.125198039 13.074812233 10.418818624 8.0951957199
          6.2232484008 4.7494358415 3.6164232959 2.7798066506 2.1693158248 1.806678212
          165.79529054 162.69717053 158.78621122 153.84614072 147.88464579 141.13334068
          133.94133973 126.41704977 118.58946291 110.60070303 102.5657871 94.620645677
          86.989338498 79.890819365 73.473595736 67.847996282 63.056415705 59.450358438
          57.111855528 52.97201884 46.936433231 40.534123689 34.761353928 29.724273795
          25.16421224 21.141165366 17.512402183 14.399636536 11.554371404 8.99955964
          6.8884216775 5.2273670995 3.9174340457 2.962625598 2.2993030899 1.9263063793
          165.78856986 162.72604351 158.79738217 153.8501734 147.88684054 141.13472419
          133.94269727 126.41845076 118.59014039 110.6018557 102.56804262 94.622536694
          86.990792279 79.889769571 73.465381733 67.835319528 63.094015048 59.756232266
          57.704836064 53.908492284 48.100338431 41.767506504 36.016950836 30.971810846
          26.437346378 22.387198772 18.793020142 15.678761214 12.832613855 10.260582641
          8.0078839376 6.1256268072 4.6312866927 3.5527777146 2.8110784392 2.3990628098
          165.75181882 162.75011754 158.80789929 153.85419176 147.88940469 141.13671356
          133.94466762 126.42031526 118.5915253 110.60385618 102.57084679 94.625529783
          86.994168504 79.891854428 73.46369618 67.837694977 63.164343079 60.050624669
          58.189860617 54.661847983 49.055316092 42.838781133 37.104475255 32.040067996
          27.513374412 23.466224852 19.898380972 16.81859138 14.027588597 11.508704822
          9.3044133052 7.4543134368 5.900131321 4.6632158251 3.7812569242 3.2980561699
          165.69264568 162.76815113 158.81751479 153.85807598 147.89197851 141.13906478
          133.94707404 126.42226736 118.59318956 110.60650308 102.57431838 94.629450942
          86.998828738 79.896078283 73.467255259 67.85313207 63.257246044 60.325108249
          58.607917472 55.299629343 49.880043948 43.788332179 38.061148287 32.970642282
          28.437966626 24.378459041 20.839953409 17.786225686 15.035479354 12.567440119
          10.40739176 8.5790257115 7.0383223445 5.8081676882 4.9001241414 4.3718182576
          165.62058412 162.78026894 158.82581378 153.86134411 147.8942109 141.14150131
          133.94967975 126.42442205 118.59516259 110.609359 102.57790621 94.633862856
          87.004296918 79.901554442 73.474631945 67.879304987 63.36899828 60.595882065
          58.985917495 55.857888308 50.611246788 44.626097425 38.907053196 33.788505285
          29.236154982 25.160412049 21.642843939 18.600417233 15.869475384 13.425992199
          11.290548813 9.4603314175 7.9290436063 6.695860152 5.7725170916 5.2268837664
          165.5440947 162.78681194 158.83252783 153.86420244 147.89629114 141.14390454
          133.95228449 126.42646033 118.59717008 110.6122334 102.58132982 94.638473114
          87.010312803 79.908391313 73.485983918 67.915746713 63.49536669 60.853781135
          59.326600517 56.34569984 51.255356683 45.366247188 39.657619919 34.515313546
          29.933351704 25.843757212 22.329933341 19.287498572 16.560449192 14.123024625
          11.987228328 10.149559511 8.6160089165 7.3720968457 6.4413241495 5.8920553883
          165.47106177 162.78867632 158.83758786 153.86653031 147.89813899 141.14617729
          133.95467695 126.42818426 118.59903887 110.61510584 102.58476497 94.643126227
          87.016533311 79.91635796 73.500951522 67.961039199 63.630271345 61.096564207
          59.635799485 56.775815397 51.824810874 46.022536923 40.325636331 35.163280165
          30.551763406 26.444487598 22.923258613 19.87285878 17.138914275 14.694899476
          12.544565445 10.695601363 9.1469416203 7.889267089 6.9524666983 6.4041763874
          165.40745872 162.78678373 158.84087782 153.86823505 147.89969753 141.14817355
          133.95678711 126.42982149 118.60079819 110.6177723 102.58809863 94.647651959
          87.022817409 79.925325841 73.519342482 68.014099765 63.770194107 61.326128555
          59.919423178 57.159414549 52.331198433 46.607223335 40.923555338 35.739743884
          31.101166911 26.972483141 23.437610597 20.374982788 17.63065885 15.17200927
          12.999567125 11.129767459 9.5586547426 8.2854197563 7.3410311972 6.7916426613
          165.35816594 162.7819446 158.84228615 153.86923159 147.90082651 141.14980918
          133.95868243 126.43130527 118.60229573 110.62018568 102.59129777 94.652210971
          87.029476616 79.93537539 73.540964357 68.073742414 63.911930411 61.542254256
          60.179866353 57.502684517 52.781676818 47.128390547 41.459359896 36.253999657
          31.586962584 27.437980174 23.886785098 20.810371613 18.053761921 15.573757893
          13.373342058 11.474480392 9.876783842 8.5837428127 7.6274129428 7.0717112151
          165.32652231 162.77479336 158.84170283 153.86944539 147.90147839 141.15104943
          133.96024544 126.43268852 118.60368177 110.62231455 102.59432465 94.656803252
          87.036468523 79.946354837 73.565383127 68.138205443 64.051887318 61.743512048
          60.417481201 57.808812101 53.180412609 47.590572212 41.936868326 36.713052336
          32.018556772 27.851935782 24.286547343 21.193645967 18.417785 15.911151595
          13.678111097 11.745046434 10.115685008 8.7972951793 7.8243693375 7.2601192615
          165.31353849 162.76554324 158.83901318 153.86882091 147.90162718 141.15188326
          133.96147397 126.43399553 118.60524128 110.6244393 102.59707341 94.661030162
          87.04318526 79.957876436 73.592117833 68.205844437 64.187667751 61.929751344
          60.633999413 58.082516451 53.535878103 48.003627801 42.366239957 37.127355041
          32.408815206 28.222370691 24.642797735 21.529029683 18.729355735 16.193682324
          13.925041608 11.954089957 10.287637215 8.9376130112 7.9435978359 7.3703316001
          165.32018659 162.75384783 158.83400881 153.86729287 147.90124019 141.15228522
          133.96235323 126.43495887 118.60669382 110.62652439 102.59950296 94.664827986
          87.0495793 79.96987564 73.620903429 68.275715924 64.319077772 62.10458219
          60.833674905 58.33086284 53.856947241 48.376973288 42.756713596 37.505597865
          32.765264755 28.557400362 24.957902854 21.821353743 18.997464521 16.432034129
          14.127047412 12.112497462 10.399039692 9.0067350485 7.9793292897 7.3864288642
          165.34470358 162.73863561 158.82647196 153.86491959 147.90038084 141.15223819
          133.96287964 126.43556956 118.60774021 110.6282485 102.60164375 94.668242498
          87.055749142 79.982586429 73.651984538 68.347901742 64.447411555 62.270698459
          61.021024198 58.56055922 54.148017824 48.713951837 43.110824009 37.850035568
          33.091840053 28.862812565 25.240751376 22.082264996 19.234301462 16.639144235
          14.294194224 12.225430494 10.452345437 9.0034596823 7.9230373403 7.2917267622
          165.38020839 162.71794513 158.81614839 153.86163665 147.89903824 141.15182431
          133.96312712 126.43581972 118.60839763 110.62974232 102.6035366 94.671167537
          87.061722785 79.996168664 73.685607367 68.422864825 64.574054584 62.429226774
          61.198406886 58.775780827 54.414831314 49.021734187 43.436646701 38.169557158
          33.395487828 29.144393838 25.503102667 22.322194422 19.449949554 16.823642297
          14.4315348 12.296875743 10.449499081 8.9249726127 7.767933658 7.0776919035
          165.41370694 162.68894236 158.80279652 153.85731728 147.89717154 141.15114213
          133.96315659 126.43567343 118.60871402 110.63097363 102.60495366 94.673467817
          87.067386449 80.0108629 73.722591278 68.501578906 64.701542833 62.583770212
          61.371061877 58.984705167 54.670127408 49.315458932 43.745138008 38.474182909
          33.684901083 29.413589837 25.754456229 22.549673389 19.65633849 16.995149231
          14.549224931 12.337378877 10.391224102 8.7545842198 7.487863807 6.7202313944
          165.42252418 162.64873189 158.78638481 153.85227861 147.89527349 141.15007089
          133.96231928 126.43483263 118.60894084 110.63241836 102.60625528 94.67520836
          87.07234304 80.026723598 73.76375965 68.585400782 64.833020868 62.745287612
          61.549507996 59.191050955 54.920234145 49.604542711 44.048942367 38.776944008
          33.977192917 29.686154041 26.005028922 22.782259974 19.870292286 17.172683662
          14.67343371 12.37229718 10.287481143 8.4837075405 7.0315045267 6.1339830194
          165.37712142 162.5987587 158.76815226 153.8470749 147.89352199 141.14869051
          133.96078239 126.43382352 118.60947254 110.63370712 102.60655485 94.676210727
          87.077525044 80.043565942 73.807151526 68.671638686 64.965301055 62.908024069
          61.726319127 59.390781752 55.160543393 49.886503233 44.353478463 39.083066217
          34.273391387 29.964472725 26.263422473 23.036599411 20.114881648 17.401536583
          14.872750146 12.497017221 10.238901668 8.198792782 6.426627693 5.2697957529
          165.26387368 162.54476388 158.75030884 153.842007 147.89172062 141.14716688
          133.95911084 126.43331489 118.61039268 110.63426802 102.60562442 94.676524727
          87.082951337 80.059236932 73.846156809 68.748493828 65.081505819 63.047921976
          61.877339666 59.562546068 55.366180969 50.129491772 44.617147946 39.346641198
          34.52278323 30.199160481 26.486845897 23.266444441 20.35895161 17.687422979
          15.232135946 12.963780282 10.842206976 8.9120675031 7.2025046736 6.0366754898
          165.09054341 162.49055197 158.73439568 153.83742315 147.89028562 141.14600689
          133.95758816 126.43307528 118.61124144 110.6343072 102.6048563 94.676941343
          87.086966159 80.070557074 73.874071705 68.802830342 65.162339973 63.143913152
          61.980517111 59.679101979 55.506520214 50.290468978 44.785867839 39.512789461
          34.67479712 30.33552676 26.616572309 23.403103894 20.522372827 17.915900475
          15.574901518 13.482498151 11.616318339 9.9703141771 8.6029671411 7.7239506225
          164.89023918 162.4393014 158.72105444 153.83341842 147.88914084 141.14533462
          133.95646455 126.43288891 118.61192891 110.63431911 102.60470047 94.677601508
          87.089122385 80.077727579 73.891696421 68.835267684 65.209232863 63.199504836
          62.039312747 59.743510625 55.584903781 50.375455479 44.872132586 39.596379912
          34.747617742 30.395778961 26.673292676 23.465843812 20.608413221 18.047943284
          15.777378772 13.782706151 12.037071318 10.542771143 9.3560887293 8.6211419442
          164.70921963 162.39619228 158.71095747 153.83018373 147.88784713 141.14464098
          133.95565295 126.43286876 118.61268926 110.63463879 102.6046655 94.677728636
          87.089854676 80.081209557 73.901089328 68.852303911 65.232479111 63.228318557
          62.067602753 59.771569441 55.619251659 50.411518202 44.908440025 39.629722287
          34.772851281 30.413568134 26.690380946 23.489130565 20.648958311 18.118626767
          15.891414956 13.954497631 12.283858091 10.887760691 9.8160540004 9.172868832
          164.56332058 162.36254526 158.70374741 153.82803968 147.88697211 141.14411209
          133.95501931 126.43283553 118.61329746 110.6351018 102.60480191 94.677461161
          87.089342916 80.081374722 73.904240483 68.859109366 65.23893513 63.233291106
          62.072306651 59.777030131 55.626061507 50.416901732 44.912831965 39.631885077
          34.76960736 30.405418583 26.681831106 23.485535546 20.65799108 18.148496435
          15.950091813 14.052190307 12.434668146 11.111405148 10.124801866 9.5488688182
          164.453871 162.33746548 158.69865698 153.82661896 147.88640279 141.1437611
          133.9546248 126.43282457 118.61364556 110.63506354 102.60436053 94.67680622
          87.088390836 80.080395916 73.904059247 68.858427022 65.232610564 63.21837914
          62.05822364 59.765458463 55.611474472 50.398243465 44.892854866 39.610596186
          34.744324316 30.376346836 26.651888546 23.459305123 20.64170834 18.147964721
          15.969903477 14.098981984 12.519399503 11.246965965 10.317420747 9.7851329015
          164.38070657 162.32066557 158.69532985 153.82562511 147.88594467 141.14348953
          133.95435847 126.43276638 118.61365166 110.63438556 102.60328612 94.675809171
          87.08706935 80.078478442 73.901223993 68.85193147 65.217378301 63.195825284
          62.033051636 59.736942541 55.575821573 50.357468747 44.851184403 39.568564992
          34.699098717 30.327588961 26.601576479 23.411632887 20.602189152 18.121201498
          15.957822019 14.105495872 12.553203709 11.315414112 10.424544099 9.9233440761
          164.34108553 162.31173058 158.69351503 153.82493253 147.88551958 141.14317128
          133.95400662 126.43255097 118.61342817 110.6335277 102.6019955 94.674340318
          87.085019626 80.075409875 73.896008508 68.840376518 65.193980896 63.164862207
          61.99717487 59.692504713 55.519670926 50.294839159 44.788113422 39.505915605
          34.633913974 30.258896981 26.530715668 23.342318472 20.539378692 18.068616493
          15.916907276 14.078756985 12.545206802 11.329221693 10.460575029 9.9754608365
          164.33180667 162.31014722 158.69303702 153.82446545 147.88508491 141.14277614
          133.95353951 126.43216186 118.61296721 110.63244678 102.60054796 94.672618958
          87.082373662 80.071201083 73.888554946 68.824136447 65.162098785 63.122023535
          61.947992592 59.631404455 55.442598286 50.209303599 44.702445198 39.421325881
          34.547235445 30.168635461 26.437432443 23.249609039 20.451845567 17.989373591
          15.846743825 14.0188587 12.497724801 11.294737228 10.437390053 9.9595068291
          164.35029722 162.31538285 158.69376742 153.82418059 147.88461917 141.14229081