<?xml version="1.0"?>
<VTKFile type="PolyData" version="0.1" byte_order="LittleEndian" header_type="UInt32" compressor="vtkZLibDataCompressor">
  <PolyData>
    <Piece NumberOfPoints="3588" NumberOfVerts="0" NumberOfLines="0" NumberOfStrips="0" NumberOfPolys="864">
      <PointData>
      </PointData>
      <CellData>
        <DataArray type="Float64" Name="electrons_temperature" format="ascii" RangeMin="1.3681930894" RangeMax="62.072306651">
          47.802031398 43.208804353 38.311781672 33.086607498 28.171287216 23.923879873
          20.060851205 16.546517565 13.487229521 11.169048905 9.319932619 7.4169448492
          5.7431032593 4.3074794513 3.1224672005 2.2753575072 1.6735428316 1.3681930894
          49.554767123 43.885056619 38.612717116 33.333419931 28.416479591 24.152782155
          20.267010646 16.74465216 13.654381288 11.276918397 9.387752893 7.482771828
          5.8157640211 4.3888928538 3.2139856165 2.3676394987 1.77277011 1.4516222978
          51.755224658 45.715702771 39.632531369 33.861705534 28.776990944 24.43223563
          20.505962359 16.97009631 13.847627995 11.402049706 9.459069199 7.5523566182
          5.8903329949 4.4682358181 3.3061845253 2.4614275413 1.8699116135 1.5329268849
          53.713007949 48.142300878 41.67161941 35.271661644 29.795134205 25.15414628
          21.019292497 17.357210129 14.130731183 11.58477215 9.5596354115 7.6336178513
          5.9696255432 4.5459267049 3.3946980832 2.5566994307 1.9657723693 1.6209674435
          55.269324158 50.219672004 43.783475083 37.261593836 31.515700205 26.5813666
          22.15875522 18.305672092 14.864622714 12.06339534 9.7693932449 7.7337592783
          6.0602175392 4.6307470418 3.4907315605 2.6605073097 2.0642754221 1.7083198245
          56.353855593 51.788943725 45.502639366 39.060336 33.267485538 28.246140261
          23.693123666 19.735845929 16.125198039 13.074812233 10.418818624 8.0951957199
          6.2232484008 4.7494358415 3.6164232959 2.7798066506 2.1693158248 1.806678212
          57.111855528 52.97201884 46.936433231 40.534123689 34.761353928 29.724273795
          25.16421224 21.141165366 17.512402183 14.399636536 11.554371404 8.99955964
          6.8884216775 5.2273670995 3.9174340457 2.962625598 2.2993030899 1.9263063793
          57.704836064 53.908492284 48.100338431 41.767506504 36.016950836 30.971810846
          26.437346378 22.387198772 18.793020142 15.678761214 12.832613855 10.260582641
          8.0078839376 6.1256268072 4.6312866927 3.5527777146 2.8110784392 2.3990628098
          58.189860617 54.661847983 49.055316092 42.838781133 37.104475255 32.040067996
          27.513374412 23.466224852 19.898380972 16.81859138 14.027588597 11.508704822
          9.3044133052 7.4543134368 5.900131321 4.6632158251 3.7812569242 3.2980561699
          58.607917472 55.299629343 49.880043948 43.788332179 38.061148287 32.970642282
          28.437966626 24.378459041 20.839953409 17.786225686 15.035479354 12.567440119
          10.40739176 8.5790257115 7.0383223445 5.8081676882 4.9001241414 4.3718182576
          58.985917495 55.857888308 50.611246788 44.626097425 38.907053196 33.788505285
          29.236154982 25.160412049 21.642843939 18.600417233 15.869475384 13.425992199
          11.290548813 9.4603314175 7.9290436063 6.695860152 5.7725170916 5.2268837664
          59.326600517 56.34569984 51.255356683 45.366247188 39.657619919 34.515313546
          29.933351704 25.843757212 22.329933341 19.287498572 16.560449192 14.123024625
          11.987228328 10.149559511 8.6160089165 7.3720968457 6.4413241495 5.8920553883
          59.635799485 56.775815397 51.824810874 46.022536923 40.325636331 35.163280165
          30.551763406 26.444487598 22.923258613 19.87285878 17.138914275 14.694899476
          12.544565445 10.695601363 9.1469416203 7.889267089 6.9524666983 6.4041763874
          59.919423178 57.159414549 52.331198433 46.607223335 40.923555338 35.739743884
          31.101166911 26.972483141 23.437610597 20.374982788 17.63065885 15.17200927
          12.999567125 11.129767459 9.5586547426 8.2854197563 7.3410311972 6.7916426613
          60.179866353 57.502684517 52.781676818 47.128390547 41.459359896 36.253999657
          31.586962584 27.437980174 23.886785098 20.810371613 18.053761921 15.573757893
          13.373342058 11.474480392 9.876783842 8.5837428127 7.6274129428 7.0717112151
          60.417481201 57.808812101 53.180412609 47.590572212 41.936868326 36.713052336
          32.018556772 27.851935782 24.286547343 21.193645967 18.417785 15.911151595
          13.678111097 11.745046434 10.115685008 8.7972951793 7.8243693375 7.2601192615
          60.633999413 58.082516451 53.535878103 48.003627801 42.366239957 37.127355041
          32.408815206 28.222370691 24.642797735 21.529029683 18.729355735 16.193682324
          13.925041608 11.954089957 10.287637215 8.9376130112 7.9435978359 7.3703316001
          60.833674905 58.33086284 53.856947241 48.376973288 42.756713596 37.505597865
          32.765264755 28.557400362 24.957902854 21.821353743 18.997464521 16.432034129
          14.127047412 12.112497462 10.399039692 9.0067350485 7.9793292897 7.3864288642
          61.021024198 58.56055922 54.148017824 48.713951837 43.110824009 37.850035568
          33.091840053 28.862812565 25.240751376 22.082264996 19.234301462 16.639144235
          14.294194224 12.225430494 10.452345437 9.0034596823 7.9230373403 7.2917267622
          61.198406886 58.775780827 54.414831314 49.021734187 43.436646701 38.169557158
          33.395487828 29.144393838 25.503102667 22.322194422 19.449949554 16.823642297
          14.4315348 12.296875743 10.449499081 8.9249726127 7.767933658 7.0776919035
          61.371061877 58.984705167 54.670127408 49.315458932 43.745138008 38.474182909
          33.684901083 29.413589837 25.754456229 22.549673389 19.65633849 16.995149231
          14.549224931 12.337378877 10.391224102 8.7545842198 7.487863807 6.7202313944
          61.549507996 59.191050955 54.920234145 49.604542711 44.048942367 38.776944008
          33.977192917 29.686154041 26.005028922 22.782259974 19.870292286 17.172683662
          14.67343371 12.37229718 10.287481143 8.4837075405 7.0315045267 6.1339830194
          61.726319127 59.390781752 55.160543393 49.886503233 44.353478463 39.083066217
          34.273391387 29.964472725 26.263422473 23.036599411 20.114881648 17.401536583
          14.872750146 12.497017221 10.238901668 8.198792782 6.426627693 5.2697957529
          61.877339666 59.562546068 55.366180969 50.129491772 44.617147946 39.346641198
          34.52278323 30.199160481 26.486845897 23.266444441 20.35895161 17.687422979
          15.232135946 12.963780282 10.842206976 8.9120675031 7.2025046736 6.0366754898
          61.980517111 59.679101979 55.506520214 50.290468978 44.785867839 39.512789461
          34.67479712 30.33552676 26.616572309 23.403103894 20.522372827 17.915900475
          15.574901518 13.482498151 11.616318339 9.9703141771 8.6029671411 7.7239506225
          62.039312747 59.743510625 55.584903781 50.375455479 44.872132586 39.596379912
          34.747617742 30.395778961 26.673292676 23.465843812 20.608413221 18.047943284
          15.777378772 13.782706151 12.037071318 10.542771143 9.3560887293 8.6211419442
          62.067602753 59.771569441 55.619251659 50.411518202 44.908440025 39.629722287
          34.772851281 30.413568134 26.690380946 23.489130565 20.648958311 18.118626767
          15.891414956 13.954497631 12.283858091 10.887760691 9.8160540004 9.172868832
          62.072306651 59.777030131 55.626061507 50.416901732 44.912831965 39.631885077
          34.76960736 30.405418583 26.681831106 23.485535546 20.65799108 18.148496435
          15.950091813 14.052190307 12.434668146 11.111405148 10.124801866 9.5488688182
          62.05822364 59.765458463 55.611474472 50.398243465 44.892854866 39.610596186
          34.744324316 30.376346836 26.651888546 23.459305123 20.64170834 18.147964721
          15.969903477 14.098981984 12.519399503 11.246965965 10.317420747 9.7851329015
          62.033051636 59.736942541 55.575821573 50.357468747 44.851184403 39.568564992
          34.699098717 30.327588961 26.601576479 23.411632887 20.602189152 18.121201498
          15.957822019 14.105495872 12.553203709 11.315414112 10.424544099 9.9233440761
          61.99717487 59.692504713 55.519670926 50.294839159 44.788113422 39.505915605
          34.633913974 30.258896981 26.530715668 23.342318472 20.539378692 18.068616493
          15.916907276 14.078756985 12.545206802 11.329221693 10.460575029 9.9754608365
          61.947992592 59.631404455 55.442598286 50.209303599 44.702445198 39.421325881
          34.547235445 30.168635461 26.437432443 23.249609039 20.451845567 17.989373591
          15.846743825 14.0188587 12.497724801 11.294737228 10.437390053 9.9595068291
          61.884105633 59.551629685 55.342025863 50.098068782 44.591880865 39.313120655
          34.437211688 30.054287642 26.318703233 23.130279818 20.336480281 17.880681522
          15.744740571 13.923299237 12.408590243 11.210383377 10.354961203 9.8769137472
          61.803740466 59.450314977 55.214300018 49.956900953 44.451984335 39.177158582
          34.300330779 29.912350533 26.170435213 22.979699794 20.188293547 17.737742102
          15.60660573 13.787908967 12.273311788 11.071113069 10.207156605 9.7198609491
          61.703791048 59.322714642 55.053166297 49.779558818 44.276519834 39.007340716
          34.130126761 29.736706322 25.987066437 22.792510074 20.001167074 17.553667363
          15.425009951 13.605988307 12.086466046 10.871540276 9.9878655007 9.4819889542
          61.579932096 59.162159753 54.849683659 49.556313128 44.056485791 38.795087763
          33.917482377 29.517692788 25.760687367 22.56046165 19.767411214 17.3200982
          15.189863001 13.365917789 11.836396048 10.601052717 9.687360504 9.1548706135
          61.426633818 58.959929298 54.593021259 49.274855464 43.780747276 38.529917328
          33.65089658 29.241890447 25.478926858 22.272061592 19.475410764 17.02427163
          14.887239577 13.051404024 11.504540562 10.240363002 9.2878888209 8.7212840817
          61.236903738 58.704935011 54.269275839 48.92127932 43.436257984 38.199352927
          33.316639339 28.892565696 25.119539489 21.912167153 19.108960478 16.648037864
          14.496987775 12.640034994 11.066611645 9.762699412 8.7632243624 8.1577550425
          61.002413771 58.383912192 53.859750488 48.474463876 43.003274988 37.784903226
          32.897230704 28.451042103 24.658580746 21.459300887 18.647432877 16.169361966
          13.993793319 12.102365875 10.491105132 9.1312948676 8.0739480391 7.4298857961
          60.709737674 57.977917526 53.339916625 47.906906317 42.456417832 37.263818443
          32.367818213 27.893415305 24.075538628 20.883259602 18.064983488 15.565118312
          13.354847931 11.406903604 9.7439214228 8.3176904351 7.174496648 6.4811356143
          60.335363593 57.454807261 52.673652179 47.182945966 41.759981092 36.604251957
          31.704150625 27.194473353 23.342617291 20.151065108 17.323391983 14.824511566
          12.578257722 10.548099041 8.8252405116 7.4475906884 6.3649756016 5.7089813594
          59.835667686 56.760556696 51.814585211 46.261592717 40.877301133 35.753876444
          30.869026688 26.330836055 22.451534284 19.253580146 16.414694982 13.953086574
          11.678885894 9.6220217499 7.9666157783 6.7442454725 5.8322705633 5.281446227
          59.163278494 55.817378961 50.644362916 45.04310164 39.771376028 34.691075735
          29.824918518 25.311840563 21.450871987 18.263084153 15.455237904 13.102404325
          10.930964692 8.9951407225 7.5605730823 6.500791271 5.7236746806 5.1830828639
          58.230426538 54.526853932 49.034479755 43.38045112 38.410802473 33.460294408
          28.688979832 24.272657429 20.49651446 17.420200907 14.727124306 12.580906081
          10.595257925 8.8009136538 7.4645753967 6.4038864704 5.6578369806 5.1100729575
          56.591249 52.69770307 46.933660921 41.405567057 36.967965687 32.352315854
          27.828537531 23.569138488 19.910695129 16.975676126 14.382764595 12.396878238
          10.508107272 8.7263670782 7.3909652438 6.3265401527 5.594083848 5.0347927031
          54.108938169 50.252567181 44.809826388 39.887950135 36.017695448 31.769398616
          27.430415893 23.274403396 19.673328036 16.803411562 14.243096109 12.310547616
          10.443503949 8.6632379917 7.3223764276 6.2543139941 5.5312400542 4.9615120546
          51.180415719 47.965199303 43.555389463 39.23304655 35.641910413 31.559477426
          27.257515797 23.122927195 19.52255877 16.681101067 14.137160932 12.23913401
          10.382458031 8.6067622096 7.2598792152 6.1924479132 5.4772229851 4.8984027808
          48.607776587 46.796628762 43.036066028 38.926120559 35.413387732 31.407181468
          27.120278988 23.001505556 19.397723351 16.580218717 14.049924602 12.182142065
          10.331408701 8.5575374055 7.1998707702 6.1308237164 5.4257223116 4.8378727055
        </DataArray>
        <DataArray type="Float64" Name="electrons_density" format="ascii" RangeMin="3.8557023981e+18" RangeMax="2.5609269775e+19">
          2.101929075e+19 2.1870153079e+19 2.374056338e+19 2.5366214733e+19 2.5609269775e+19 2.4482976396e+19
          2.2531588965e+19 1.9808360022e+19 1.6725202364e+19 1.3840630988e+19 1.1465265698e+19 9.8217884401e+18
          8.575497558e+18 7.6059439068e+18 6.9846063627e+18 6.4925448492e+18 6.0084671813e+18 5.7499572364e+18
          2.0226003341e+19 2.1451556516e+19 2.3493661189e+19 2.5121576915e+19 2.5332144626e+19 2.4199655192e+19
          2.2262464723e+19 1.9588372903e+19 1.6584016865e+19 1.3759910466e+19 1.1375754002e+19 9.6830976281e+18
          8.3916373697e+18 7.41797253e+18 6.8217545146e+18 6.3828586585e+18 5.9230675358e+18 5.6429205827e+18
          1.9519112577e+19 2.0380584075e+19 2.270472543e+19 2.4598787826e+19 2.4930041948e+19 2.3853149949e+19
          2.1947269171e+19 1.9335570295e+19 1.6422473432e+19 1.3675618508e+19 1.1297774392e+19 9.5447046211e+18
          8.1788812343e+18 7.1629164234e+18 6.5737992726e+18 6.2029480877e+18 5.8057552318e+18 5.5138507455e+18
          1.9143935396e+19 1.9487388672e+19 2.1332611002e+19 2.3331891136e+19 2.3894238023e+19 2.309259679e+19
          2.1390238281e+19 1.8970167611e+19 1.6231953114e+19 1.35965675e+19 1.1220637648e+19 9.3955148621e+18
          7.9501233716e+18 6.8929459816e+18 6.2648062116e+18 5.9300128062e+18 5.585363433e+18 5.29254652e+18
          1.8817320947e+19 1.9001426568e+19 2.0101406222e+19 2.1677444506e+19 2.2246802203e+19 2.1661230249e+19
          2.0277921875e+19 1.824214991e+19 1.5850660108e+19 1.3441522705e+19 1.1155924856e+19 9.3177944156e+18
          7.7619880868e+18 6.6162585963e+18 5.8818090969e+18 5.5101382312e+18 5.2591386914e+18 4.9995156376e+18
          1.8563697748e+19 1.8707526854e+19 1.9278621673e+19 2.024615739e+19 2.0641458276e+19 2.0087909698e+19
          1.8867560512e+19 1.7177628193e+19 1.5276893489e+19 1.325561885e+19 1.110396304e+19 9.2102291478e+18
          7.6620975559e+18 6.4558515763e+18 5.5701812894e+18 5.0627977798e+18 4.8108261419e+18 4.5911900965e+18
          1.8303073018e+19 1.8389527254e+19 1.8659038553e+19 1.9136571331e+19 1.9277871073e+19 1.8689906717e+19
          1.7544912979e+19 1.61175595e+19 1.4641137926e+19 1.3083093588e+19 1.1302218081e+19 9.3891828737e+18
          7.6819853128e+18 6.3630400026e+18 5.3855300022e+18 4.7567881517e+18 4.4056049446e+18 4.1722211123e+18
          1.7983039067e+19 1.8012469368e+19 1.8096963353e+19 1.8221751179e+19 1.8091025684e+19 1.7414763161e+19
          1.6277331652e+19 1.4961518974e+19 1.3728281029e+19 1.2585294855e+19 1.1390753573e+19 1.0064822357e+19
          8.6185490922e+18 7.1871608496e+18 6.00926187e+18 5.2146073518e+18 4.7522822905e+18 4.5187202198e+18
          1.760621875e+19 1.7581914518e+19 1.7529178174e+19 1.7409041138e+19 1.7050757647e+19 1.6269946463e+19
          1.5095226977e+19 1.3745238868e+19 1.2477397774e+19 1.133942586e+19 1.0251158777e+19 9.1628448261e+18
          8.085939347e+18 7.0735223935e+18 6.2030790988e+18 5.530318741e+18 5.0643897138e+18 4.8057180904e+18
          1.721511221e+19 1.7146922475e+19 1.6994057973e+19 1.6715037701e+19 1.6205880714e+19 1.5354380852e+19
          1.4172805405e+19 1.2809669603e+19 1.149242804e+19 1.0298200885e+19 9.1855221425e+18 8.1348114267e+18
          7.1662219757e+18 6.3038842419e+18 5.5768068733e+18 5.0069996108e+18 4.5976721314e+18 4.3641799621e+18
          1.6853960268e+19 1.6753015733e+19 1.6532503503e+19 1.6155803279e+19 1.5555470228e+19 1.4668518251e+19
          1.350001147e+19 1.2157518434e+19 1.083610327e+19 9.6219710743e+18 8.5040930873e+18 7.4853582822e+18
          6.5824941985e+18 5.8035196406e+18 5.1533175681e+18 4.6413030843e+18 4.2702338418e+18 4.0578351322e+18
          1.6544138975e+19 1.6420393983e+19 1.6155362307e+19 1.5719091427e+19 1.5066139776e+19 1.4166954932e+19
          1.3027439087e+19 1.1727098609e+19 1.0434658954e+19 9.2323106744e+18 8.1258946706e+18 7.1315184099e+18
          6.2640862262e+18 5.5296195826e+18 4.9230642542e+18 4.443532694e+18 4.0967058433e+18 3.898780728e+18
          1.6290451425e+19 1.6151763066e+19 1.585904709e+19 1.5389081903e+19 1.4710365178e+19 1.3811030981e+19
          1.2706178107e+19 1.1459056863e+19 1.0211850526e+19 9.0402307403e+18 7.9572340729e+18 6.9853592021e+18
          6.1400052836e+18 5.4285759616e+18 4.8433943209e+18 4.3796652777e+18 4.0455284537e+18 3.8557023981e+18
          1.6092274425e+19 1.5944258214e+19 1.5635327854e+19 1.5148253102e+19 1.4462778425e+19 1.3575040209e+19
          1.2503630061e+19 1.1307225845e+19 1.0108737049e+19 8.9731312739e+18 7.9172417076e+18 6.9657725622e+18
          6.13473082e+18 5.4338258974e+18 4.8569091295e+18 4.4004350447e+18 4.0714200468e+18 3.8846757637e+18
          1.594386853e+19 1.5790143291e+19 1.5472183421e+19 1.49777705e+19 1.4294215097e+19 1.3424189395e+19
          1.2383667262e+19 1.1230940246e+19 1.0081209197e+19 8.9850271467e+18 7.9556408703e+18 7.0199603029e+18
          6.1970856114e+18 5.5000836772e+18 4.925663533e+18 4.4708860695e+18 4.1422497661e+18 3.9550682157e+18
          1.5837447744e+19 1.5680240518e+19 1.5357527197e+19 1.486115578e+19 1.4183487955e+19 1.3331629001e+19
          1.23219692e+19 1.1207063075e+19 1.0101639686e+19 9.0480324778e+18 8.0441809543e+18 7.1192007746e+18
          6.299435408e+18 5.6003553998e+18 5.020839901e+18 4.5599126809e+18 4.2259013922e+18 4.0353996113e+18
          1.5759547191e+19 1.5599829597e+19 1.5275452297e+19 1.4781541713e+19 1.4112929461e+19 1.3280430869e+19
          1.2303952323e+19 1.122876744e+19 1.016163486e+19 9.1444465383e+18 8.1677519147e+18 7.254010457e+18
          6.4315472515e+18 5.7226969324e+18 5.1297920297e+18 4.6543047395e+18 4.3084890783e+18 4.1110963051e+18
          1.5709888327e+19 1.5547990488e+19 1.5221821829e+19 1.4729299116e+19 1.4067000288e+19 1.3248687148e+19
          1.2298528713e+19 1.1262570956e+19 1.0234204154e+19 9.2512845997e+18 8.3036332389e+18 7.4028740607e+18
          6.5772218021e+18 5.8529350172e+18 5.2374410305e+18 4.7398637769e+18 4.3766022853e+18 4.1690488193e+18
          1.5686712585e+19 1.5523607629e+19 1.5194176927e+19 1.4697919779e+19 1.4035305696e+19 1.3223204113e+19
          1.2292359132e+19 1.1287144357e+19 1.0294655084e+19 9.3499537319e+18 8.4349632226e+18 7.5514249946e+18
          6.7214830219e+18 5.9739460987e+18 5.327753274e+18 4.8011138144e+18 4.4145769211e+18 4.1931686287e+18
          1.5671889022e+19 1.5507845494e+19 1.5175755841e+19 1.4675421433e+19 1.4010197723e+19 1.3202161339e+19
          1.2285751039e+19 1.1304127352e+19 1.0346453004e+19 9.4446090219e+18 8.5728394257e+18 7.7185570669e+18
          6.8860786934e+18 6.1085117222e+18 5.4236687913e+18 4.859551495e+18 4.4400504705e+18 4.1974584377e+18
          1.5659070861e+19 1.5495313456e+19 1.5163438869e+19 1.4664075829e+19 1.3994933575e+19 1.3182002805e+19
          1.2273024016e+19 1.1314753387e+19 1.0389372483e+19 9.5293118342e+18 8.7146514087e+18 7.9135207437e+18
          7.0982668608e+18 6.2949138378e+18 5.5539354664e+18 4.9240043298e+18 4.4497198111e+18 4.1744762768e+18
          1.5661058008e+19 1.5492592582e+19 1.5153145427e+19 1.464954047e+19 1.3980729521e+19 1.3166885233e+19
          1.2263675558e+19 1.1325197212e+19 1.0423330596e+19 9.6020226949e+18 8.8456711782e+18 8.1165918621e+18
          7.3667346187e+18 6.5714141241e+18 5.771199111e+18 5.0403802112e+18 4.4677218928e+18 4.1354237317e+18
          1.5678839291e+19 1.5505822312e+19 1.5156405937e+19 1.4644367819e+19 1.3977651374e+19 1.3170410977e+19
          1.2268319612e+19 1.1336674328e+19 1.0448262608e+19 9.6408482755e+18 8.9056390478e+18 8.2291624915e+18
          7.5794396578e+18 6.8830928491e+18 6.1110527322e+18 5.3072405925e+18 4.5977654602e+18 4.1588432139e+18
          1.5692701274e+19 1.551876059e+19 1.516577451e+19 1.4651152929e+19 1.3986398732e+19 1.3185313106e+19
          1.228745409e+19 1.1360632817e+19 1.0484756971e+19 9.6905920937e+18 8.9692879766e+18 8.3007469023e+18
          7.6392325195e+18 6.9118664137e+18 6.0997007566e+18 5.2692570126e+18 4.552473564e+18 4.1157994143e+18
          1.5696803673e+19 1.5523856914e+19 1.5174780442e+19 1.4663187947e+19 1.4001430897e+19 1.3211890184e+19
          1.2329494439e+19 1.1407304711e+19 1.053585791e+19 9.7405542135e+18 8.9895978624e+18 8.2450736797e+18
          7.4665429485e+18 6.644832357e+18 5.8241570839e+18 5.0907715808e+18 4.5294565745e+18 4.2090453299e+18
          1.5702066875e+19 1.5531440138e+19 1.518901817e+19 1.4682928921e+19 1.4027039688e+19 1.3250206817e+19
          1.2381420507e+19 1.1457532568e+19 1.0560264053e+19 9.714612253e+18 8.8905040755e+18 8.0721351703e+18
          7.2602602717e+18 6.4752730796e+18 5.7534256555e+18 5.1464200838e+18 4.6975026055e+18 4.4409681016e+18
          1.5710299269e+19 1.5539334516e+19 1.5199861034e+19 1.4702708261e+19 1.4058884842e+19 1.3289347329e+19
          1.2418975327e+19 1.1485668818e+19 1.0565155144e+19 9.6814940593e+18 8.8165870707e+18 7.9759528766e+18
          7.1776673516e+18 6.4421837387e+18 5.7894420718e+18 5.2497514315e+18 4.8534424536e+18 4.6275244563e+18
          1.5706759633e+19 1.5538712315e+19 1.5205804438e+19 1.4717335878e+19 1.4081274766e+19 1.3316589641e+19
          1.2445130305e+19 1.150259568e+19 1.0565453218e+19 9.6611274251e+18 8.7795327161e+18 7.9364871791e+18
          7.1567693021e+18 6.4593573545e+18 5.8549255315e+18 5.3623496591e+18 5.0015320555e+18 4.7952108496e+18
          1.5692464367e+19 1.5530277096e+19 1.520587401e+19 1.4723799372e+19 1.4092138341e+19 1.3330518814e+19
          1.2459281364e+19 1.1512094614e+19 1.0564362623e+19 9.6484820313e+18 8.7617159748e+18 7.925683296e+18
          7.16579812e+18 6.4964233227e+18 5.9230761119e+18 5.4596699338e+18 5.121418016e+18 4.9282274442e+18
          1.5688619869e+19 1.5527757087e+19 1.5206209727e+19 1.4727845788e+19 1.410058641e+19 1.3343241871e+19
          1.2473487069e+19 1.1523505101e+19 1.0569828996e+19 9.6501957063e+18 8.7655996192e+18 7.9379508984e+18
          7.1891438241e+18 6.5351480235e+18 5.9813683973e+18 5.535140425e+18 5.2100755284e+18 5.0246345759e+18
          1.5695769493e+19 1.5535014224e+19 1.5213692061e+19 1.47376284e+19 1.4114759595e+19 1.3361357837e+19
          1.2492575429e+19 1.154023809e+19 1.0583363738e+19 9.6618417351e+18 8.7783416983e+18 7.9552576221e+18
          7.2138237022e+18 6.5692278508e+18 6.0252461706e+18 5.5876028758e+18 5.2688983073e+18 5.0872267849e+18
          1.5713409364e+19 1.5553827887e+19 1.5234442506e+19 1.4760932263e+19 1.4139928143e+19 1.3386541219e+19
          1.2516899343e+19 1.1562911705e+19 1.0603427211e+19 9.6790301047e+18 8.7932041141e+18 7.9690747019e+18
          7.2280974201e+18 6.5852258837e+18 6.0436683543e+18 5.6085552134e+18 5.2919262851e+18 5.1114923104e+18
          1.5744291063e+19 1.5585709037e+19 1.5267986683e+19 1.4797140081e+19 1.4179217727e+19 1.3427160667e+19
          1.2555096561e+19 1.1596513033e+19 1.0632217666e+19 9.7020186488e+18 8.8095611339e+18 7.9785168925e+18
          7.2306990084e+18 6.5819523527e+18 6.0361683621e+18 5.5984712187e+18 5.2804321889e+18 5.0991757826e+18
          1.5796204172e+19 1.5639069389e+19 1.5323832485e+19 1.4855753929e+19 1.4240087342e+19 1.3488390981e+19
          1.2613436149e+19 1.164924245e+19 1.0676951427e+19 9.7365855293e+18 8.8338361516e+18 7.9928411792e+18
          7.23299943e+18 6.5700712011e+18 6.0112924578e+18 5.5645135993e+18 5.240734806e+18 5.0561759745e+18
          1.5875138186e+19 1.5719959366e+19 1.5408017683e+19 1.4942598547e+19 1.4328002547e+19 1.357502324e+19
          1.2697357638e+19 1.1729865515e+19 1.0749599035e+19 9.7964502589e+18 8.8798891849e+18 8.0234769396e+18
          7.2453797545e+18 6.5632558949e+18 5.9864497569e+18 5.52472493e+18 5.1901114322e+18 4.9993620145e+18
          1.5986773511e+19 1.583443908e+19 1.5527233507e+19 1.5067696399e+19 1.445675936e+19 1.3701517119e+19
          1.2818429893e+19 1.1847247617e+19 1.0859725933e+19 9.8963884398e+18 8.9684696297e+18 8.0937996319e+18
          7.2928979315e+18 6.5863670196e+18 5.9850394356e+18 5.5002256926e+18 5.1470753863e+18 4.9456058232e+18
          1.6138408029e+19 1.5991237274e+19 1.5693368422e+19 1.5244754392e+19 1.4639574238e+19 1.3879200696e+19
          1.2986072957e+19 1.2009898162e+19 1.1023569797e+19 1.0060089301e+19 9.1255284925e+18 8.237321007e+18
          7.4146317342e+18 6.6776420111e+18 6.0415663545e+18 5.5232513437e+18 5.1431892551e+18 4.9257348323e+18
          1.6335622067e+19 1.6196868198e+19 1.5915477954e+19 1.54880774e+19 1.4897782724e+19 1.4135298467e+19
          1.3230031619e+19 1.2247337376e+19 1.1273429498e+19 1.0325818277e+19 9.3981625782e+18 8.5078386326e+18
          7.6665989716e+18 6.8944049622e+18 6.2123404502e+18 5.6467267889e+18 5.2277696259e+18 4.9868964535e+18
          1.6582845648e+19 1.6457010095e+19 1.6204117656e+19 1.5819585918e+19 1.5263123086e+19 1.4503051253e+19
          1.3586941225e+19 1.2608159287e+19 1.1661572431e+19 1.075166091e+19 9.8604741524e+18 8.9857765286e+18
          8.132004675e+18 7.3207956857e+18 6.5803868512e+18 5.9473141785e+18 5.4698660966e+18 5.1940248189e+18
          1.6881293444e+19 1.6775880091e+19 1.6571798809e+19 1.6266576426e+19 1.5770812217e+19 1.5014195327e+19
          1.4093143984e+19 1.313972322e+19 1.224509606e+19 1.1390286704e+19 1.0547933045e+19 9.6829349974e+18
          8.800025732e+18 7.9324524149e+18 7.1326032009e+18 6.4351238037e+18 5.8940359506e+18 5.5754643625e+18
          1.7201362158e+19 1.7122888343e+19 1.6998977354e+19 1.6841055036e+19 1.6445282737e+19 1.5688328689e+19
          1.4771589389e+19 1.3860952445e+19 1.2996040995e+19 1.2061790499e+19 1.1032584118e+19 9.8696280478e+18
          8.6371915028e+18 7.4203070652e+18 6.3754649326e+18 5.6239852122e+18 5.1683947579e+18 4.9393100089e+18
          1.7478605531e+19 1.7426339487e+19 1.7429056712e+19 1.7527198609e+19 1.7264512611e+19 1.6491441115e+19
          1.5573526482e+19 1.4715692853e+19 1.3862013276e+19 1.275661196e+19 1.1433354563e+19 9.8992933316e+18
          8.3727283959e+18 7.0611413653e+18 6.1879363678e+18 5.6074879526e+18 5.2713791182e+18 5.0109064187e+18
          1.7699896108e+19 1.7664232942e+19 1.7886489866e+19 1.8363547849e+19 1.8198610032e+19 1.7385256582e+19
          1.6454652966e+19 1.5597154479e+19 1.4707569837e+19 1.3386164379e+19 1.1826351776e+19 1.0116173589e+19
          8.6651575143e+18 7.4445238671e+18 6.5793763033e+18 6.148118365e+18 5.9406952401e+18 5.6471614367e+18
          1.7903147842e+19 1.7859832155e+19 1.853778586e+19 1.9500130958e+19 1.9289589322e+19 1.8387483983e+19
          1.7409862873e+19 1.6494902563e+19 1.5485185511e+19 1.3886840937e+19 1.2143138777e+19 1.0360284774e+19
          8.9955959317e+18 7.8417108571e+18 7.0177937671e+18 6.6589437604e+18 6.4620262771e+18 6.1077929115e+18
          1.8168120143e+19 1.8123253983e+19 1.9553760946e+19 2.0895909335e+19 2.0452399529e+19 1.9340571963e+19
          1.8174008858e+19 1.7118019155e+19 1.5965707695e+19 1.416889302e+19 1.2331076625e+19 1.0517952638e+19
          9.2177599611e+18 8.1928359979e+18 7.5087312335e+18 7.2041254919e+18 6.9500029436e+18 6.5482922224e+18
          1.8558015397e+19 1.8798746198e+19 2.0789037641e+19 2.2083320234e+19 2.1273111932e+19 1.9874396285e+19
          1.8549588431e+19 1.7422000136e+19 1.6210066994e+19 1.4307612066e+19 1.242963067e+19 1.0644028122e+19
          9.4666343461e+18 8.5465303877e+18 7.9489205751e+18 7.574080154e+18 7.2412954714e+18 6.8265634831e+18
          1.9244291778e+19 1.9855265095e+19 2.1635693344e+19 2.2632927189e+19 2.1600484887e+19 2.0088362069e+19
          1.8742760052e+19 1.7606835908e+19 1.6383121189e+19 1.4421837746e+19 1.2519928911e+19 1.0765363068e+19
          9.6804490404e+18 8.8323048128e+18 8.2582094787e+18 7.8519230321e+18 7.4842395579e+18 7.0486121575e+18
          2.0322848769e+19 2.0462117381e+19 2.1995212937e+19 2.2886374267e+19 2.1802606071e+19 2.0249669453e+19
          1.8898933228e+19 1.7755374191e+19 1.6521027806e+19 1.4508221481e+19 1.2581791522e+19 1.0856118089e+19
          9.8478267681e+18 9.0627412251e+18 8.5144701136e+18 8.0479006828e+18 7.6315371001e+18 7.1871155188e+18
        </DataArray>
        <DataArray type="Float64" Name="ions_0_temperature" format="ascii" RangeMin="0.50547729589" RangeMax="74.47712197">
          45.753538856 44.568929058 41.060389345 35.726893499 29.830513967 24.270570784
          19.066016997 14.772028842 11.461113358 8.9139450546 6.7301855369 4.7623657047
          3.1771558059 2.0186006814 1.2797489259 0.84433056989 0.61063484631 0.50547729589
          48.959174122 45.653700081 41.54117271 36.123372536 30.203395239 24.598439713
          19.35069507 15.011309485 11.667547727 9.0898378936 6.8822719749 4.9059205611
          3.3032040562 2.1054130468 1.3352391543 0.87884700648 0.63059209133 0.51933638798
          53.279431973 48.64925314 43.164829511 36.985441835 30.76509121 25.008710949