<?xml version="1.0"?>
<VTKFile type="PolyData" version="0.1" byte_order="LittleEndian" header_type="UInt32" compressor="vtkZLibDataCompressor">
  <PolyData>
    <Piece NumberOfPoints="3588" NumberOfVerts="0" NumberOfLines="0" NumberOfStrips="0" NumberOfPolys="864">
      <PointData>
      </PointData>
      <CellData>
        <DataArray type="Float64" Name="electrons_temperature" format="ascii" RangeMin="1.425291061" RangeMax="61.40887075">
          47.370115682 42.930056105 38.159335881 33.085482165 28.276571964 24.131821388
          20.369760639 16.908665514 13.857866036 11.51083513 9.5942216788 7.6213293314
          5.8905201009 4.4173281931 3.209119872 2.3480543765 1.7391587225 1.425291061
          49.090350863 43.589141368 38.451879009 33.324612839 28.513693608 24.351123022
          20.563473757 17.092037281 14.010891348 11.608942482 9.6561990085 7.6823770481
          5.9589416378 4.4950398521 3.2970507502 2.4364587297 1.8341583871 1.5051125917
          51.256941098 45.377110217 39.445215478 33.836854348 28.862422162 24.618949836
          20.788264445 17.301141379 14.188318791 11.723064011 9.7214918934 7.7469812796
          6.0291890591 4.5707217364 3.3855558523 2.5262882308 1.927076233 1.5831260495
          53.185727216 47.752389584 41.435841302 35.207205172 29.849417977 25.312309172
          21.272786664 17.661652303 14.449359245 11.890308227 9.8137314409 7.822482705
          6.1039164608 4.6448392717 3.4705416809 2.6177013329 2.0188369857 1.6674278347
          54.722129151 49.785200146 43.496984917 37.142151584 31.518949667 26.685897749
          22.354114587 18.552546251 15.133343871 12.33283639 10.00714591 7.9157048371
          6.1893729859 4.7257413689 3.562721245 2.7173314313 2.1131630898 1.7513720947
          55.795804842 51.321349263 45.171887704 38.886685163 33.215705019 28.288405738
          23.815654549 19.904446488 16.319548448 13.280618502 10.614588483 8.2556419529
          6.3437239956 4.8391631306 3.6835429075 2.8321151929 2.2139793817 1.846024732
          56.546932253 52.479927701 46.566728994 40.31161643 34.65763033 29.708898218
          25.218955323 21.238013625 17.633440716 14.533087793 11.688902175 9.1188867202
          6.9842125088 5.301650456 3.9750751361 3.0088613709 2.3391895068 1.9615799716
          57.134103559 53.397066821 47.697608556 41.500966836 35.864916072 30.904062469
          26.432269816 22.421759348 18.849625987 15.747597209 12.905251953 10.328778618
          8.0699157171 6.1822339006 4.6803883924 3.593397259 2.8447569484 2.428444922
          57.613650249 54.134559512 48.624238313 42.531610389 36.906648275 31.923726142
          27.455453012 23.445907726 19.899689348 16.831335429 14.044393755 11.52480034
          9.3188632667 7.4686540688 5.915390774 4.6788336561 3.7958617997 3.3112378607
          58.026325504 54.758489767 49.423325663 43.443228848 37.819999282 32.808888174
          28.332501691 24.310585156 20.793892672 17.752050513 15.006526411 12.540140526
          10.381388289 8.5555583286 7.0183986273 5.7914735852 4.8862145216 4.3594886433
          58.398739182 55.304197137 50.13100273 44.246250795 38.625541097 33.584750884
          29.088200147 25.051159586 21.556452958 18.527572053 15.803932094 13.364679872
          11.233139413 9.4080265371 7.8825317432 6.6550859704 5.7368671242 5.1945067476
          58.733850051 55.780702488 50.753934397 44.954972637 39.339056122 34.273020819
          29.747494834 25.698218321 22.209474083 19.18304531 16.465958314 14.035517155
          11.90637247 10.076159758 8.55052314 7.3143648092 6.3901846734 5.8451142532
          59.037594957 56.200619631 51.304495765 45.583121921 39.973517695 34.886029693
          30.332072875 26.267309983 22.77406734 19.742583855 17.021528434 14.587262776
          12.446188036 10.606829206 9.0680892146 7.8197707076 6.8905945877 6.3470360023
          59.315931039 56.575012184 51.794162624 46.142865826 40.541388192 35.43129918
          30.851578376 26.767992878 23.264289882 20.223616312 17.495028595 15.048771984
          12.887959184 11.029807537 9.4704262219 8.2078567507 7.2718714164 6.7275396696
          59.571327016 56.910041839 52.230048489 46.6422347 41.050666539 35.918043103
          31.311347092 27.21001979 23.693162761 20.641637807 17.903413488 15.438292895
          13.251629862 11.366288838 9.7819013878 8.5006964304 7.5533937105 7.0030217493
          59.804201997 57.208882975 52.616264016 47.085704392 41.505159154 36.353071693
          31.720346746 27.603708873 24.075557305 21.010394154 18.255507231 15.766000003
          13.548519668 11.630567342 10.015899613 8.710411014 7.7471127889 7.1884220518
          60.016282917 57.476148589 52.960981451 47.482704189 41.914520458 36.746274006
          32.090721856 27.95655274 24.41689007 21.333642426 18.557339687 16.040673761
          13.789005404 11.834379513 10.183794142 8.8476683472 7.8639116555 7.2964478964
          60.211730078 57.718670826 53.272667917 47.842122322 42.287392769 37.105729226
          32.429435153 28.276079891 24.719157305 21.615699811 18.817261107 16.272334488
          13.985250903 11.987829904 10.291171389 8.913673259 7.8972019466 7.3104600281
          60.394938346 57.942930189 53.555404049 48.166909131 42.625895206 37.433265367
          32.739900284 28.567480287 24.990547664 21.867475307 19.046780749 16.47328476
          14.146731058 12.095428165 10.339722786 8.9063238089 7.8374882075 7.2129455915
          60.568129133 58.152898499 53.814544922 48.463641403 42.937370534 37.736955346
          33.028339134 28.835900552 25.242004515 22.098727651 19.255398133 16.651655336
          14.278014756 12.160471477 10.330499256 8.8220734633 7.6778478149 6.9954526675
          60.736281043 58.356383343 54.062197511 48.746565027 43.231911202 38.025903365
          33.302531031 29.091838408 25.482258681 22.317341573 19.454418057 16.816626234
          14.388798186 12.192741683 10.263003476 8.6432693355 7.3914832469 6.6334224873
          60.909701167 58.556816744 54.30417872 49.024292804 43.521122557 38.312003432
          33.578134103 29.349688088 25.720548075 22.539818749 19.659835094 16.986452767
          14.504602659 12.216736821 10.145490188 8.3586293877 6.9245663881 6.0399244121
          61.081016638 58.75018633 54.535835899 49.294012744 43.809587965 38.59959413
          33.855281773 29.610585609 25.964172959 22.781435946 19.893704384 17.205686157
          14.693943786 12.328675745 10.07793118 8.0496650981 6.2973616454 5.1604796268
          61.226599437 58.915761238 54.733181787 49.52509086 44.057375301 38.84474746
          34.085657422 29.827066072 26.171636141 22.997368881 20.126329852 17.482433159
          15.046737186 12.792134447 10.682130584 8.7671632103 7.0774045666 5.9293622569
          61.32531493 59.027297691 54.86693224 49.67672093 44.213748434 38.996556816
          34.223091612 29.949530132 26.289004121 23.123682352 20.281778395 17.705717171
          15.387982137 13.313795277 11.46395641 9.8347831766 8.4839280039 7.6165730021
          61.380747536 59.087912584 54.940407872 49.754992522 44.291269266 39.069987252
          34.285708526 30.000441308 26.337469518 23.179715653 20.362882584 17.834899901
          15.589984998 13.615738967 11.887658193 10.409286296 9.2364763623 8.51065874
          61.406447811 59.112972127 54.970870379 49.785860458 44.320905453 39.09568328
          34.303281222 30.011248317 26.348424207 23.197985126 20.399730503 17.903443295
          15.703557899 13.788514001 12.13609204 10.755297898 9.695854868 9.0603357803
          61.40887075 59.115809849 54.974235849 49.786626337 44.319475259 39.091324338
          34.293497471 29.997033652 26.334540558 23.190040861 20.40555417 17.931355559
          15.761595975 13.886736005 12.288050756 10.97982647 10.004458783 9.4352260927
          61.392448698 59.101597613 54.956117996 49.763227221 44.293624941 39.06360004
          34.26191264 29.9622044 26.299557387 23.159647923 20.386104664 17.928777872
          15.780471352 13.933592571 12.373482627 11.116148728 10.197358972 9.6712027586
          61.365014767 59.070334665 54.916721683 49.717462976 44.245837549 39.014983438
          34.210367064 29.907755102 26.244296425 23.107832536 20.343308751 17.899651515
          15.766949876 13.939546101 12.407389417 11.184984251 10.304755244 9.8093643615
          61.326928527 59.023094078 54.856645843 49.649529438 44.176254521 38.945398081
          34.138671703 29.833290842 26.168456161 23.034306612 20.277070469 17.844408773
          15.724120963 13.911553997 12.398676723 11.198447223 10.340541657 9.8611368769
          61.275523703 58.959147157 54.775500367 49.558345465 44.083582737 38.853386973
          34.045156516 29.737060352 26.070069736 22.937262829 20.185944654 17.762253446
          15.651662687 13.849864383 12.349728879 11.162671035 10.316146064 9.8439844467
          61.209417777 58.876512855 54.670741968 49.441104914 43.965441936 38.737173645
          33.927881946 29.616464916 25.946049433 22.813432886 20.066812479 17.650426263
          15.547067769 13.752130032 12.258638531 11.07643789 10.231888652 9.7596443718
          61.126873089 58.772379753 54.538768642 49.293544846 43.81724813 38.592438842
          33.783226287 29.467928805 25.792258928 22.65815602 19.914678263 17.504155827
          15.406139991 13.614360298 12.121194926 10.935113758 10.082186931 9.6009067977
          61.024824958 58.642070403 54.373385398 49.109396413 43.632594651 38.412855831
          33.604525791 29.285209122 25.603087756 22.466054639 19.723430049 17.316595418
          15.221660514 13.430055818 11.932277676 10.733739752 9.8614755838 9.3619860282
          60.899010285 58.479019889 54.165746925 48.878852555 43.40222218 38.189526226
          33.38241464 29.05847148 25.370579056 22.228823719 19.485372738 17.079423252
          14.98363208 13.187781213 11.68050631 10.462079741 9.5604434694 9.0348845359
          60.743990815 58.27466345 53.905164688 48.589539534 43.114731076 37.911631141
          33.105122803 28.774077624 25.082227655 21.934835476 19.188813874 16.77981077
          14.678142648 12.871367543 11.347590551 10.101211598 9.1617249249 8.6027708097
          60.552897274 58.018129466 53.577933859 48.227533205 42.756782896 37.566283607
          32.758594325 28.415007363 24.715479782 21.568739831 18.817332566 16.39936978
          14.284899609 12.458398499 10.909371907 9.6245747852 8.6392785642 8.0423381306
          60.317560298 57.696444585 53.165603233 47.771598137 42.308142732 37.134375104
          32.324938453 27.962214544 24.246063058 21.108674537 18.349841611 15.915504952
          13.778065305 11.91897895 10.333965821 8.994922051 7.9532236008 7.3187261154
          60.024736871 57.290978379 52.643900463 47.194086172 41.742846327 36.592431904
          31.778668612 27.391230101 23.65303816 20.523627584 17.759627602 15.303963801
          13.133606445 11.220163867 9.5856369024 8.1816306357 7.0557244487 6.3732452961
          59.651239143 56.770057691 51.977039705 46.459146088 41.024315223 35.907472936
          31.094843369 26.676061317 22.907706513 19.779331403 17.007078325 14.552653908
          12.348266047 10.355348198 8.6635802545 7.3103498931 6.2460123286 5.6017921012
          59.154204035 56.080461346 51.119109276 45.525569681 40.114984674 35.025105724
          30.234846416 25.79209584 22.000692023 18.865208083 16.082780276 13.66627853
          11.436523673 9.4225739456 7.8036435615 6.6102283583 5.7175405063 5.178123331
          58.48785551 55.145846282 49.952498827 44.29257921 38.976761539 33.922450066
          29.159264467 24.747759876 20.980188728 17.853335132 15.103699935 12.798189583
          10.676292247 8.7910761206 7.3980457762 6.3684663147 5.6097705034 5.0805150341
          57.566834126 53.869463657 48.349559566 42.611921188 37.577498785 32.644812139
          27.987775577 23.68039652 20.004184198 16.989020115 14.357853003 12.263834198
          10.334201612 8.5951684395 7.3020605806 6.2720668352 5.5444118963 5.0081635849
          55.954510262 52.062557672 46.259537681 40.618864084 36.095134407 31.49386063
          27.099055594 22.955999088 19.403377509 16.531404718 14.003904999 12.074698208
          10.245222432 8.5198350645 7.2282882662 6.1949326957 5.4809979144 4.9334151059
          53.520961565 49.648952851 44.151134611 39.091161455 35.119720009 30.887631866
          26.687155766 22.651821923 19.159393898 16.353608681 13.860032819 11.985831051
          10.179188469 8.4559327702 7.1593746612 6.1227157948 5.4183402353 4.8604680248
          50.652380003 47.39735876 42.90810678 38.432479688 34.733753034 30.668997178
          26.508056768 22.495292264 19.004230801 16.227202002 13.750785968 11.912250174
          10.116733745 8.3986791856 7.0964487415 6.0607431373 5.3643921708 4.7975309828
          48.141717614 46.248733577 42.393697746 38.123825775 34.498968612 30.510294725
          26.365814849 22.369720391 18.875640276 16.122831588 13.660741345 11.853481987
          10.064463242 8.3487121371 7.0359220425 5.998917496 5.312875717 4.7370337539
        </DataArray>
        <DataArray type="Float64" Name="electrons_density" format="ascii" RangeMin="3.8443524095e+18" RangeMax="2.5596217398e+19">
          2.1128826295e+19 2.1970976557e+19 2.3841758132e+19 2.5445973903e+19 2.5596217398e+19 2.4256186983e+19
          2.2069910304e+19 1.9231550356e+19 1.6163275245e+19 1.3356946285e+19 1.1107579249e+19 9.5781647244e+18
          8.405727162e+18 7.4575964133e+18 6.8313919746e+18 6.3369565101e+18 5.8546856216e+18 5.5983832194e+18
          2.0330637686e+19 2.1552756442e+19 2.3597224143e+19 2.5205119437e+19 2.5326486923e+19 2.3986153816e+19
          2.1820967335e+19 1.9035436839e+19 1.6043615551e+19 1.3293129797e+19 1.1030388203e+19 9.4487618544e+18
          8.2302401604e+18 7.2784481231e+18 6.6791295135e+18 6.2382340915e+18 5.7813361619e+18 5.5040937198e+18
          1.9628291101e+19 2.0474671015e+19 2.2804898902e+19 2.468649674e+19 2.4934657744e+19 2.3656405933e+19
          2.1529634797e+19 1.8809966549e+19 1.5906725516e+19 1.3227238759e+19 1.0963750744e+19 9.3191622727e+18
          8.0257419049e+18 7.0332604738e+18 6.4437402665e+18 6.070949817e+18 5.6760513538e+18 5.3869292087e+18
          1.9252205492e+19 1.9580664082e+19 2.1427505838e+19 2.3418011477e+19 2.3905506332e+19 2.2920509889e+19
          2.1010910372e+19 1.8483056466e+19 1.5747442692e+19 1.3171782768e+19 1.0901359294e+19 9.1797547031e+18
          7.8046790712e+18 6.7720723309e+18 6.1469473569e+18 5.8109353861e+18 5.4683531788e+18 5.1787804588e+18
          1.8921234147e+19 1.909608123e+19 2.0191718438e+19 2.176360864e+19 2.2273071605e+19 2.1532647457e+19
          1.9964965265e+19 1.7819559616e+19 1.5416032749e+19 1.3051402623e+19 1.0853984099e+19 9.109108369e+18
          7.6215915495e+18 6.502882888e+18 5.7764426261e+18 5.4066214412e+18 5.1562477016e+18 4.898882372e+18
          1.8664269509e+19 1.8802356803e+19 1.9365998912e+19 2.0325538156e+19 2.0672045886e+19 1.9998446815e+19
          1.8630688377e+19 1.6843746691e+19 1.4916786583e+19 1.2918462841e+19 1.0827475403e+19 9.0114891852e+18
          7.5227622103e+18 6.3458947793e+18 5.4742499243e+18 4.9734255244e+18 4.7230164339e+18 4.5050960054e+18
          1.8400661855e+19 1.8482899457e+19 1.8744273347e+19 1.9208755573e+19 1.9308404285e+19 1.8628168239e+19
          1.7369651214e+19 1.5859911606e+19 1.4351059242e+19 1.2800114715e+19 1.1059713022e+19 9.2047701922e+18
          7.5450817966e+18 6.255763607e+18 5.2960537491e+18 4.6775262179e+18 4.330419196e+18 4.0990475995e+18
          1.8078621255e+19 1.8104547786e+19 1.8180937517e+19 1.8290139547e+19 1.8122780774e+19 1.7376107924e+19
          1.6153376746e+19 1.47725299e+19 1.3510182816e+19 1.2366330137e+19 1.1191468652e+19 9.8962667003e+18
          8.4820844809e+18 7.0768304655e+18 5.9176654934e+18 5.134632112e+18 4.6784259473e+18 4.4475980265e+18
          1.7700739742e+19 1.7673333821e+19 1.7612800495e+19 1.7476897564e+19 1.7086419685e+19 1.6251413905e+19
          1.5012888745e+19 1.361349591e+19 1.2323832639e+19 1.1186417798e+19 1.0112501992e+19 9.043745071e+18
          7.9856272313e+18 6.9886728464e+18 6.1296976538e+18 5.4648971214e+18 5.0041183403e+18 4.7482363084e+18
          1.7308765034e+19 1.7237801109e+19 1.7077670681e+19 1.6783578032e+19 1.6246740152e+19 1.5352805247e+19
          1.4122499247e+19 1.2720570927e+19 1.1385292671e+19 1.0191024076e+19 9.0891239135e+18 8.0529244494e+18
          7.0979261061e+18 6.2465281726e+18 5.5276041899e+18 4.9636463631e+18 4.5583475413e+18 4.3271634735e+18
          1.6946213732e+19 1.6842720375e+19 1.661554802e+19 1.6225431897e+19 1.5601910818e+19 1.4681364675e+19
          1.3474606995e+19 1.2100472283e+19 1.076283565e+19 9.5464932219e+18 8.4351964642e+18 7.4265990048e+18
          6.5336862531e+18 5.7629222561e+18 5.1189593085e+18 4.6114333377e+18 4.2435378683e+18 4.0329825197e+18
          1.6634505884e+19 1.6508502614e+19 1.6237683331e+19 1.5790004267e+19 1.5117912811e+19 1.4191932968e+19
          1.302195549e+19 1.1695259618e+19 1.0387545486e+19 9.1806468867e+18 8.0769790636e+18 7.0888869817e+18
          6.2283495609e+18 5.4999389438e+18 4.8981451966e+18 4.4222058242e+18 4.0779632583e+18 3.8815333617e+18
          1.6378980319e+19 1.6238373978e+19 1.5940788688e+19 1.5461365886e+19 1.4767063612e+19 1.3846227211e+19
          1.2716855665e+19 1.1447633051e+19 1.0186013643e+19 9.0080742295e+18 7.924746103e+18 6.9559492329e+18
          6.1148720791e+18 5.4076308659e+18 4.8259854275e+18 4.3650768571e+18 4.0329891862e+18 3.8443524095e+18
          1.6179022148e+19 1.6029428572e+19 1.5716511383e+19 1.5221766265e+19 1.4523825174e+19 1.3618956335e+19
          1.2527750177e+19 1.1312772251e+19 1.0100950672e+19 8.957994194e+18 7.899560172e+18 6.9486717264e+18
          6.1197065406e+18 5.4213285242e+18 4.8467887259e+18 4.3923453353e+18 4.064856628e+18 3.8790100222e+18
          1.6028908608e+19 1.5873919751e+19 1.5552767672e+19 1.5052248679e+19 1.4358851228e+19 1.3475329887e+19
          1.24189239e+19 1.1250745145e+19 1.0089126978e+19 8.9852764352e+18 7.9519352583e+18 7.0149502343e+18
          6.1923496628e+18 5.4963927858e+18 4.9232486761e+18 4.4697177305e+18 4.1420798763e+18 3.9554963896e+18
          1.5921060471e+19 1.5762872343e+19 1.5437666842e+19 1.4936534508e+19 1.4251228565e+19 1.3388902593e+19
          1.2366753133e+19 1.1239249702e+19 1.0123585279e+19 9.062600114e+18 8.0539507922e+18 7.1262533871e+18
          6.3052888583e+18 5.6059385334e+18 5.0266782391e+18 4.5661974006e+18 4.2326315366e+18 4.0424172097e+18
          1.5842343909e+19 1.5681905446e+19 1.5355678665e+19 1.4858225361e+19 1.4183940337e+19 1.3343660458e+19
          1.2357764563e+19 1.1272659249e+19 1.0196883066e+19 9.1727980712e+18 8.190807606e+18 7.2732409665e+18
          6.4482758754e+18 5.7379346925e+18 5.144265132e+18 4.6684228521e+18 4.3224828983e+18 4.1250552248e+18
          1.5792975151e+19 1.5630609189e+19 1.5303188167e+19 1.480821988e+19 1.4141995805e+19 1.3318241171e+19
          1.2361310101e+19 1.1317827814e+19 1.0282310356e+19 9.2929949827e+18 8.3397338502e+18 7.4342359913e+18
          6.6049111549e+18 5.8779710743e+18 5.2606907052e+18 4.761933477e+18 4.3979554531e+18 4.1900323791e+18
          1.5771414615e+19 1.5608089766e+19 1.5277959276e+19 1.4780225037e+19 1.4115186062e+19 1.3299602403e+19
          1.2364183735e+19 1.1353448431e+19 1.0355132533e+19 9.4045758305e+18 8.4837901177e+18 7.5947292466e+18
          6.7599956384e+18 6.0086109278e+18 5.3595650657e+18 4.8308938159e+18 4.4430348118e+18 4.2209139696e+18
          1.5759400838e+19 1.5595380564e+19 1.526311819e+19 1.4762183629e+19 1.4095833068e+19 1.3286002413e+19
          1.2366847322e+19 1.1381325429e+19 1.0419002999e+19 9.5119260034e+18 8.6343693544e+18 7.7739365882e+18
          6.9355186804e+18 6.1527522796e+18 5.4638662818e+18 4.8967991173e+18 4.4753239257e+18 4.2316462146e+18
          1.5750269989e+19 1.5586780271e+19 1.5255247865e+19 1.4756096397e+19 1.4086951047e+19 1.3273651201e+19
          1.2363462391e+19 1.1402639107e+19 1.0473620346e+19 9.6089795391e+18 8.7888777962e+18 7.9813877197e+18
          7.1591978424e+18 6.3491251896e+18 5.6025974221e+18 4.9685240382e+18 4.4914493872e+18 4.2146945394e+18
          1.575583414e+19 1.5587857859e+19 1.5249211288e+19 1.4746557689e+19 1.4078816422e+19 1.3265938415e+19
          1.2362960327e+19 1.1423123e+19 1.0518443366e+19 9.6932077453e+18 8.9320402625e+18 8.1970668759e+18
          7.4401811416e+18 6.6369911974e+18 5.8293476007e+18 5.0925107349e+18 4.5158384833e+18 4.1814771728e+18
          1.5775997204e+19 1.56036568e+19 1.5255448129e+19 1.4745030765e+19 1.408031126e+19 1.3275087598e+19
          1.237437513e+19 1.1442418522e+19 1.0551712544e+19 9.7404132658e+18 9.000233126e+18 8.3180445213e+18
          7.6623832302e+18 6.9593861666e+18 6.1803762413e+18 5.3697787987e+18 4.655170032e+18 4.2134993175e+18
          1.5790789811e+19 1.5617623415e+19 1.5266058116e+19 1.4753337172e+19 1.4090812117e+19 1.3291849719e+19
          1.2395378251e+19 1.1468431571e+19 1.0590446851e+19 9.7925258271e+18 9.0664847757e+18 8.3923996505e+18
          7.7247851257e+18 6.9900056427e+18 6.1695909663e+18 5.3311658158e+18 4.6085194226e+18 4.1688246393e+18
          1.579526368e+19 1.5623137839e+19 1.5275538842e+19 1.4765817803e+19 1.4106078518e+19 1.3318236412e+19
          1.2436581778e+19 1.1513672089e+19 1.0640059671e+19 9.8413246758e+18 9.0859398891e+18 8.3357579423e+18
          7.5501699873e+18 6.7203394047e+18 5.8914356631e+18 5.1510910563e+18 4.5849356806e+18 4.2619325749e+18
          1.5801464059e+19 1.5631739209e+19 1.5290918797e+19 1.4786805497e+19 1.4132915742e+19 1.3357611872e+19
          1.2489317886e+19 1.1564367081e+19 1.0664547598e+19 9.8150110117e+18 8.9858222947e+18 8.1612215039e+18
          7.3422363756e+18 6.5499726019e+18 5.8213277996e+18 5.2087375952e+18 4.755777425e+18 4.4969895021e+18
          1.5812026603e+19 1.5642122281e+19 1.5304519841e+19 1.4809636137e+19 1.4168017133e+19 1.3400059971e+19
          1.2530080442e+19 1.1595444994e+19 1.0671921159e+19 9.7838082349e+18 8.913297432e+18 8.0661671908e+18
          7.2609098926e+18 6.5186038495e+18 5.8596066904e+18 5.314738182e+18 4.9146455344e+18 4.686604552e+18
          1.5812514118e+19 1.5645716333e+19 1.5315016581e+19 1.4829217673e+19 1.4195710072e+19 1.3432773069e+19
          1.2561624942e+19 1.1617454772e+19 1.0676819547e+19 9.7675137562e+18 8.8797740312e+18 8.0298319882e+18
          7.2430004152e+18 6.5388302528e+18 5.9283204787e+18 5.4307547056e+18 5.0662888258e+18 4.8578929843e+18
          1.5803747646e+19 1.5643005617e+19 1.5321185635e+19 1.4842268431e+19 1.4213613648e+19 1.3453999834e+19
          1.258303741e+19 1.1633879883e+19 1.0682102128e+19 9.7605864932e+18 8.8670391504e+18 8.0236005277e+18
          7.2562701935e+18 6.5799592534e+18 6.0004644157e+18 5.5320521341e+18 5.1901481989e+18 4.9948798761e+18
          1.580659551e+19 1.5647442883e+19 1.5328962358e+19 1.4854361202e+19 1.423067125e+19 1.3475679473e+19
          1.2606210522e+19 1.1653893811e+19 1.0695518988e+19 9.7694720024e+18 8.8773234972e+18 8.0416074796e+18
          7.2848232042e+18 6.6235129118e+18 6.063355682e+18 5.6119573976e+18 5.2831316054e+18 5.0955536915e+18
          1.5821443023e+19 1.5662723874e+19 1.534507032e+19 1.4873510094e+19 1.4254902994e+19 1.3504297366e+19
          1.2635836891e+19 1.1680709343e+19 1.071831904e+19 9.7894074142e+18 8.8973693083e+18 8.0653443902e+18
          7.3152358714e+18 6.6628157865e+18 6.1120984748e+18 5.669031684e+18 5.3463911649e+18 5.1624851996e+18
          1.5847619444e+19 1.5690450091e+19 1.5375433073e+19 1.4907306854e+19 1.4291410224e+19 1.354136736e+19
          1.2672093218e+19 1.1714737432e+19 1.0748706785e+19 9.8156802044e+18 8.92004695e+18 8.0858408278e+18
          7.3352902392e+18 6.6839372629e+18 6.1351839313e+18 5.6943295637e+18 5.3735519761e+18 5.1907654384e+18
          1.5887662922e+19 1.5731951614e+19 1.5419451114e+19 1.4955053749e+19 1.4343243511e+19 1.3595163342e+19
          1.272347119e+19 1.1760780573e+19 1.0788640513e+19 9.8482428584e+18 8.9443643659e+18 8.1017917676e+18
          7.3432792763e+18 6.6852366398e+18 6.1317022726e+18 5.6878994639e+18 5.3654791632e+18 5.1817421507e+18
          1.5949164607e+19 1.5795467907e+19 1.5486511692e+19 1.5026215909e+19 1.441791475e+19 1.3670955465e+19
          1.2796311425e+19 1.1827042407e+19 1.0845240387e+19 9.8926761322e+18 8.9764928966e+18 8.1222090672e+18
          7.3503127673e+18 6.6770872353e+18 6.1098799359e+18 5.656576143e+18 5.3281640911e+18 5.1409886774e+18
          1.6037992428e+19 1.5886983098e+19 1.558269094e+19 1.5126789115e+19 1.4521167445e+19 1.377385109e+19
          1.2896355431e+19 1.192249711e+19 1.0930577788e+19 9.9626851058e+18 9.0301774304e+18 8.1583099314e+18
          7.3664814141e+18 6.6728900055e+18 6.0868991253e+18 5.6181840811e+18 5.2786559475e+18 5.0851540583e+18
          1.6159750265e+19 1.60125626e+19 1.5714846264e+19 1.5267105084e+19 1.4667197115e+19 1.3918744809e+19
          1.3035538875e+19 1.2056276455e+19 1.1054366317e+19 1.0073147197e+19 9.1262303628e+18 8.2334420877e+18
          7.4167825895e+18 6.6974130754e+18 6.0861087528e+18 5.5938250509e+18 5.2354687585e+18 5.0310989425e+18
          1.6321561813e+19 1.6180840649e+19 1.5894920377e+19 1.5461143711e+19 1.4869685391e+19 1.411748242e+19
          1.3223734156e+19 1.2237229169e+19 1.1233244019e+19 1.0248230058e+19 9.2910663972e+18 8.381652241e+18
          7.5408844871e+18 6.7894626499e+18 6.1424477507e+18 5.6161080983e+18 5.2305286434e+18 5.0100222559e+18
          1.6528877594e+19 1.6398338425e+19 1.6132224364e+19 1.5723703636e+19 1.5150564448e+19 1.4397907703e+19
          1.3491344426e+19 1.2495621843e+19 1.1500547048e+19 1.052759284e+19 9.5734971362e+18 8.6585982743e+18
          7.7965831258e+18 7.007957948e+18 6.313637045e+18 5.7391883569e+18 5.3143384843e+18 5.0702416169e+18
          1.6786216572e+19 1.6671055188e+19 1.6437973123e+19 1.6077490987e+19 1.5542340421e+19 1.4794202064e+19
          1.3876299876e+19 1.2881939765e+19 1.1910999361e+19 1.0972616499e+19 1.0052027666e+19 9.1496648952e+18
          8.272137118e+18 7.4418377608e+18 6.6870619421e+18 6.0436209277e+18 5.5594244094e+18 5.2800117713e+18
          1.7094621928e+19 1.7003268862e+19 1.6825211105e+19 1.6550614237e+19 1.6081100714e+19 1.5339465289e+19
          1.4417145849e+19 1.3446972103e+19 1.2526558726e+19 1.1642478284e+19 1.0770065188e+19 9.8752199888e+18
          8.9644173913e+18 8.0734819779e+18 7.2552388676e+18 6.5450280451e+18 5.9957537619e+18 5.6731013327e+18
          1.7424338788e+19 1.7364837457e+19 1.7275613319e+19 1.7156164669e+19 1.6792197704e+19 1.6054873778e+19
          1.5139238038e+19 1.4214003813e+19 1.3324378135e+19 1.2361010653e+19 1.1297898513e+19 1.0097509222e+19
          8.825122671e+18 7.5732110972e+18 6.5016056302e+18 5.7336915751e+18 5.269807028e+18 5.0373641852e+18
          1.7710846348e+19 1.7684544118e+19 1.7733190949e+19 1.7877411263e+19 1.765308416e+19 1.6907717171e+19
          1.5994611492e+19 1.5126399326e+19 1.4249916363e+19 1.3113287226e+19 1.174752803e+19 1.016276131e+19
          8.5819101204e+18 7.2249279353e+18 6.3240723387e+18 5.7288644728e+18 5.3874669104e+18 5.1246362339e+18
          1.7943970734e+19 1.7945414877e+19 1.8226251665e+19 1.8752565723e+19 1.8633150285e+19 1.7859717912e+19
          1.6936228261e+19 1.6068064632e+19 1.5152446577e+19 1.3792675908e+19 1.2179870852e+19 1.0407504804e+19
          8.8989411714e+18 7.6281082916e+18 6.7314697417e+18 6.2891082376e+18 6.0794762179e+18 5.7814703249e+18
          1.8159607703e+19 1.8171245633e+19 1.8922474961e+19 1.9936610736e+19 1.9780156619e+19 1.8929557146e+19
          1.7955855754e+19 1.7025607108e+19 1.5980321944e+19 1.4330171677e+19 1.2525124755e+19 1.0672784641e+19
          9.2479337666e+18 8.0422228259e+18 7.1851269823e+18 6.8171531386e+18 6.6167072498e+18 6.2556978095e+18
          1.8441230527e+19 1.8476912496e+19 1.9989290551e+19 2.1388248747e+19 2.100530881e+19 1.9946574347e+19
          1.8771119697e+19 1.7689670658e+19 1.6492848351e+19 1.4635536589e+19 1.2730056852e+19 1.0843712499e+19
          9.4823205652e+18 8.407616632e+18 7.6910803851e+18 7.3771933767e+18 7.1164491785e+18 6.7071791647e+18
          1.8857693916e+19 1.920576331e+19 2.1269786572e+19 2.2621589922e+19 2.1869894611e+19 2.0516799548e+19
          1.9173070237e+19 1.8015256731e+19 1.6754665339e+19 1.4788099002e+19 1.2839419909e+19 1.0980330065e+19
          9.7429660668e+18 8.7738572704e+18 8.1434949767e+18 7.756558602e+18 7.4145178246e+18 6.9924980929e+18
          1.9614124701e+19 2.0305502715e+19 2.2144107303e+19 2.319294752e+19 2.2215940665e+19 2.0745460594e+19
          1.9379439068e+19 1.8213087073e+19 1.6939849394e+19 1.4912910892e+19 1.2938275298e+19 1.1110236937e+19
          9.9656775479e+18 9.0689083939e+18 8.4609651891e+18 8.0410658783e+18 7.6626321131e+18 7.2193927708e+18
          2.0734386476e+19 2.0930577759e+19 2.251485469e+19 2.3456735956e+19 2.2429659033e+19 2.0917545921e+19
          1.9545858224e+19 1.8371845429e+19 1.7087537348e+19 1.5007656885e+19 1.3006395954e+19 1.1207257743e+19
          1.0139720713e+19 9.3066450936e+18 8.7243192191e+18 8.2425432188e+18 7.8138233776e+18 7.3614685596e+18
        </DataArray>
        <DataArray type="Float64" Name="ions_0_temperature" format="ascii" RangeMin="0.50450233681" RangeMax="74.26539406">
          45.454423885 44.248256905 40.753682836 35.490518905 29.707730255 24.257921095
          19.113892546 14.839894487 11.535330508 8.9863866916 6.7919267227 4.8043425072
          3.1981621343 2.0251789459 1.2804007267 0.8433586258 0.60952555921 0.50450233681
          48.649600411 45.330369813 41.232862042 35.883680441 30.074647766 24.578444113
          19.391620077 15.073443045 11.737385845 9.1597029442 6.9434941518 4.9488966904
          3.3259869481 2.1136376754 1.3371381847 0.87885970713 0.63030347096 0.51905797952