<?xml version="1.0"?>
<VTKFile type="PolyData" version="0.1" byte_order="LittleEndian" header_type="UInt32" compressor="vtkZLibDataCompressor">
  <PolyData>
    <Piece NumberOfPoints="3588" NumberOfVerts="0" NumberOfLines="0" NumberOfStrips="0" NumberOfPolys="3456">
      <PointData>
      </PointData>
      <CellData>
        <DataArray type="Float64" Name="electrons_temperature" format="ascii" RangeMin="0.29054527803" RangeMax="165.39113397">
          0.47250712548 0.52432081073 0.58282015368 0.6556511326 0.73302160945 0.80603603151
          0.87497148656 0.94048141172 1.0030148545 1.0644842569 1.1506040577 1.2604733916
          1.3599732239 1.4480964597 1.5274230806 1.6307853728 1.7823561613 1.9204835649
          2.0642122077 2.4071489266 3.4334412738 5.8631372448 9.0971720697 11.521097181
          12.82687875 12.420469417 11.178120995 9.9702118363 8.4281779356 6.3571974378
          4.382680786 2.6966742374 1.1982793113 0.56702841379 0.36637647935 0.29054527803
          0.53660407223 0.59934937948 0.67132399184 0.76071464872 0.85432723271 0.9425856309
          1.026953846 1.1084381485 1.1873608169 1.2658211377 1.3776087764 1.5210693868
          1.6531713466 1.7760984856 1.8925781667 2.0518486351 2.2914851547 2.5049188644
          2.7310925775 3.3457694523 4.939977833 7.1008454592 9.5295730528 11.671987327
          12.896630952 12.474454984 11.231473366 10.007476901 8.4623990169 6.3981959226
          4.4315298383 2.7643585254 1.2990256466 0.6173356954 0.38499467117 0.29871548972
          0.63525729767 0.71102903692 0.79865957284 0.90937374232 1.027090302 1.1391020145
          1.2465910947 1.3501472138 1.450712964 1.5542782798 1.7070033276 1.9047523623
          2.0903595857 2.2668685533 2.4382143064 2.6802546294 3.0388453628 3.3384897415
          3.6714814244 4.6332878626 6.6202884031 8.3321188168 10.057710428 11.8443003
          12.974891929 12.529664481 11.284653243 10.0469256 8.497655575 6.4396497821
          4.481475135 2.8301650268 1.3884430283 0.65022234739 0.39696290478 0.30958895245
          0.82150148775 0.92156747024 1.0379233036 1.1872006307 1.3496571054 1.5059362299
          1.6559727665 1.8008465832 1.9428944674 2.0912563994 2.3138729156 2.6043502252
          2.8791638146 3.1427741977 3.4008064234 3.7624429578 4.265349731 4.6560880306
          5.095843816 6.3326244133 8.3543282546 9.5079847885 10.6322468 12.040059667
          13.060381489 12.587197894 11.339068989 10.088303278 8.5346234172 6.4831920311
          4.5331425388 2.8922704471 1.4693001148 0.67816926566 0.40475725202 0.31097378712
          1.0707837277 1.2115893766 1.3759009666 1.5850131386 1.8107072755 2.0285314729
          2.2392443455 2.4422860485 2.641309275 2.8523176171 3.1737850784 3.5943898059
          3.988724525 4.3621807051 4.7196589745 5.210798208 5.8828054266 6.381663591
          6.9084877321 8.305409521 10.133278574 10.708170035 11.228982455 12.262315261
          13.152982023 12.648279834 11.394058899 10.13053879 8.5735362523 6.5293873251
          4.5870235905 2.9542729762 1.5471426931 0.70744217188 0.41601179667 0.32043008211
          1.3701033623 1.5517050734 1.7619509678 2.0329117939 2.3289731211 2.6173444966
          2.9001434761 3.1762872013 3.4500612152 3.7409443929 4.1811918522 4.7482854738
          5.2725240733 5.761872715 6.2231724738 6.8466350876 7.7050878574 8.3351991933
          8.9448489401 10.411372617 11.968336824 12.032377919 11.897099284 12.519585197
          13.251603166 12.711548185 11.451633637 10.175221366 8.6127181354 6.5752815063
          4.642269434 3.0197619417 1.6259726078 0.73700045144 0.43095069408 0.33106950082
          1.6770700388 1.9028455977 2.1656152539 2.5051140964 2.8801018431 3.2466429982
          3.6077427771 3.963752109 4.3163900007 4.6856841656 5.2344172217 5.9340728845
          6.5775620046 7.1742095743 7.7308682414 8.4727915731 9.5004038203 10.2752335
          10.981212363 12.580977247 13.929360782 13.554005004 12.708740088 12.822077517
          13.35694638 12.775514463 11.512481863 10.223100324 8.6532498256 6.6242376199
          4.700985678 3.0853916988 1.7035139194 0.77388372713 0.4501624022 0.34627409282
          1.9551187857 2.2390920339 2.568887738 2.9894938679 3.4518635899 3.9038998513
          4.3444049579 4.7758114747 5.1997290116 5.6299644029 6.2543621404 7.0609857255
          7.8081460386 8.5027526008 9.1483111816 9.9999274015 11.196202582 12.1272367
          12.964829171 14.797026093 16.000942122 15.279254879 13.81338475 13.222127698
          13.478601578 12.840959147 11.571926476 10.272285005 8.6958767311 6.6711116489
          4.756718999 3.1481747356 1.7782910878 0.81921948133 0.47514097055 0.36857307975
          2.2379014105 2.5861397928 2.9750948595 3.462170228 3.9990449341 4.5220499643
          5.0272579396 5.5171215746 5.9946875559 6.4768902232 7.1737339936 8.084030246
          8.9313034627 9.7202684782 10.454062068 11.417003767 12.782351228 13.8687555
          14.841559475 16.941086249 18.042067616 17.09343226 15.250508339 13.862241208
          13.643954269 12.91533918 11.633092979 10.321811786 8.7391124032 6.716334585
          4.8127009586 3.2145873973 1.8529713514 0.87424708819 0.49708034015 0.38584707338
          2.4854253359 2.8860293393 3.3327240359 3.8879751612 4.492432143 5.0753694677
          5.6328610735 6.1693415682 6.6840994049 7.2061582291 7.96429512 8.9594611967
          9.8936083883 10.771084275 11.592190105 12.674707369 14.237910527 15.505645017
          16.619460642 18.987845576 19.985527235 18.853724016 16.808490189 14.825448177
          13.933137706 13.005747696 11.698190125 10.373012669 8.7829618114 6.7643270453
          4.8743190918 3.2893464204 1.9325558642 0.93534283247 0.52250297932 0.39851776493
          2.6639504434 3.1121005377 3.6185073321 4.2426181949 4.9089024027 5.5475350031
          6.1584965755 6.7461684571 7.2977584072 7.8475312642 8.6473962322 9.7115185912
          10.72217237 11.680009062 12.58072959 13.77556523 15.569401122 17.069605905
          18.366687509 21.026269213 21.851388121 20.527849208 18.313745825 16.005861966
          14.43204234 13.132602801 11.770248542 10.425756869 8.826506473 6.8104721653
          4.9323904759 3.3627447717 2.0120245065 1.0011144049 0.55300049773 0.42953426998
          2.7702087075 3.2868482461 3.858618826 4.5391059552 5.250423885 5.9295526279
          6.5766583989 7.1987065853 7.7855265868 8.366367091 9.2107062448 10.346161657
          11.433647157 12.471547184 13.444367112 14.741897565 16.764902623 18.528678855
          20.04932888 23.025028683 23.617351215 22.126509212 19.731671563 17.222480167
          15.118050558 13.355606144 11.854662167 10.479174778 8.8698887919 6.8600648316
          4.9897143679 3.4327851556 2.0932964237 1.0794614783 0.59329400265 0.44722396792
          2.8261963143 3.3824728518 4.0065824686 4.7489673743 5.5167744142 6.2375741111
          6.9156301156 7.5599234273 8.169944519 8.7751887491 9.6551351574 10.854048756
          12.015033696 13.143591864 14.197281278 15.595614646 17.857195124 19.912042608
          21.685701609 24.995590213 25.324554144 23.652137462 21.060905725 18.383673684
          15.916294193 13.709241381 11.970820299 10.541681555 8.9120759294 6.9091814335
          5.0473563354 3.5002714575 2.1733420342 1.1599543161 0.63065613954 0.48077143083
          2.8172101061 3.3982482361 4.0573782281 4.8590174363 5.6913510808 6.4595668485
          7.1772727517 7.8624077593 8.4997456027 9.1138195345 10.011019299 11.259215941
          12.476913856 13.675564234 14.814990643 16.32856864 18.848058782 21.255959962
          23.341324495 26.928988228 26.997612493 25.112413941 22.314626636 19.457004695
          16.746612655 14.141136665 12.129690724 10.604291932 8.9558827907 6.9608704687
          5.1093274288 3.5712172512 2.2575909163 1.2519040649 0.68902638536 0.52763281548
          2.7403594473 3.3687606385 4.070714871 4.9216982649 5.8116661219 6.6140571386
          7.3474454375 8.0559290466 8.7206473797 9.3636547774 10.295157767 11.584584943
          12.843730221 14.088868178 15.294945487 16.926660858 19.697857327 22.511042508
          25.080030178 28.842906531 28.630674813 26.489221934 23.491507046 20.407242006
          17.507483717 14.590090295 12.318193426 10.663402128 9.0059710522 7.0145227339
          5.1744177285 3.648137355 2.3464994001 1.3440582424 0.75722485985 0.57427029946
          2.6582451348 3.3290121939 4.0819700566 4.9565907307 5.850370635 6.6716958816
          7.4285542222 8.1543178102 8.8437317445 9.5289652345 10.508270572 11.830988283
          13.123895124 14.423034993 15.691539803 17.425367929 20.451809481 23.654370168
          26.987869823 30.804585633 30.223861908 27.771768789 24.572749594 21.227040901
          18.140679487 15.012362474 12.519238781 10.730069363 9.0571001383 7.0667869359
          5.2358264979 3.71772513 2.4292828854 1.433479984 0.83872702939 0.64773202846
          2.5765325658 3.2832495631 4.0556797189 4.9218048872 5.8049672191 6.6442887961
          7.4364411395 8.1918283933 8.9121215009 9.6351940922 10.661319192 12.021409684
          13.33427565 14.658176844 15.99076344 17.838434687 21.136378894 24.712475422
          28.968120561 32.723923029 31.772570315 28.986837343 25.497704955 21.907310992
          18.632879051 15.362829335 12.708211436 10.800527705 9.1079041617 7.1231665395
          5.2991090592 3.7827027292 2.5129974479 1.5308514695 0.93384814838 0.72738337998
          2.5345434028 3.2607364864 4.0072275029 4.8554887918 5.7495858175 6.6047729547
          7.4201106598 8.2039715888 8.9606468173 9.7284559669 10.772582682 12.138767159
          13.475545367 14.822206218 16.203451784 18.163217323 21.702425333 25.761907292
          30.855038652 34.662155076 33.242027964 30.100842519 26.22788 22.442881904
          19.003745352 15.639451735 12.879037887 10.876872207 9.1597625796 7.1828847961
          5.3728989878 3.8544086193 2.5992781663 1.6330958191 1.0368523318 0.82072099779
          2.4628880931 3.1900676272 3.9300952465 4.7833173933 5.6891410846 6.555325497
          7.3860437573 8.190957377 8.9824304902 9.7748344419 10.816655316 12.17787821
          13.540410423 14.925253461 16.350388321 18.406699198 22.126230464 26.735189142
          32.859136636 36.597603806 34.514733777 30.984880391 26.762526758 22.841086495
          19.28057135 15.860740032 13.031549372 10.956555679 9.2165407742 7.2485081595
          5.4505526017 3.9321836573 2.6876587117 1.7403346873 1.1455067116 0.91349596974
          2.4168091406 3.1406324297 3.8793460615 4.7358255458 5.6457467145 6.5171653555
          7.3549987206 8.1692781908 8.9757552243 9.7759127547 10.819879058 12.179185312
          13.554017972 14.963520903 16.434457011 18.562674171 22.436247813 27.484729222
          35.312902604 38.307253033 35.568191925 31.608973176 27.148332331 23.134373389
          19.495499345 16.050250871 13.171580231 11.041104273 9.2754342631 7.3074027911
          5.5198428386 4.0146678517 2.7822590457 1.8488032593 1.245832713 0.99872011093
          2.3703713789 3.0906006449 3.8309953825 4.6909754712 5.6041564369 6.4803083697
          7.3237925693 8.1441836412 8.9558521392 9.7629567469 10.811216942 12.167330549
          13.550075378 14.976001277 16.48373572 18.659938657 22.658054551 28.049502893
          38.174132631 39.822842254 36.455614225 32.071169284 27.442906654 23.363651055
          19.679067762 16.225544535 13.307143704 11.129558728 9.3344129134 7.3652544101
          5.591529559 4.0944033514 2.8664017502 1.9489345525 1.343230813 1.0885252243
          2.325902787 3.042169996 3.7879920161 4.6533254378 5.5683832378 6.4476672982
          7.2941306744 8.1164183369 8.9267666691 9.7389288308 10.794336043 12.14999328
          13.538706342 14.975118279 16.503982579 18.703659177 22.784460171 28.445454173
          41.246760703 41.144476445 37.134295785 32.414244973 27.675170328 23.560993795
          19.850171561 16.395359619 13.442144314 11.221824095 9.3974553623 7.4303823323
          5.6701943329 4.1738647006 2.9444577417 2.0479587606 1.4506843378 1.176508386
          2.2917688292 3.0042254532 3.7579806692 4.6291968913 5.5453898413 6.4270478512
          7.2755026352 8.0985872612 8.9070382993 9.7225867043 10.782335919 12.13877502
          13.530208304 14.970048178 16.504159718 18.709634702 22.826117409 28.616941468
          44.026991953 42.056660449 37.585552354 32.665878568 27.876350975 23.74706178
          20.018672024 16.564086161 13.578226398 11.321657385 9.4684660428 7.5015513873
          5.7505927395 4.257044616 3.0329509478 2.1481615619 1.5436531181 1.2615822111
          2.269380638 2.9782522839 3.7400700231 4.6162572911 5.5325304743 6.4152837352
          7.2644515705 8.0872094058 8.8930673406 9.7104713664 10.773031381 12.131188071
          13.52485454 14.967008243 16.503590514 18.710135029 22.836726332 28.667346269
          46.01815296 42.570726178 37.89533584 32.877427684 28.071030405 23.934223323
          20.190338386 16.734270483 13.715047065 11.416859821 9.5326618468 7.5646612843
          5.8246523594 4.3384582636 3.1194789083 2.2481003289 1.6416910559 1.3457413454
          165.30299577 162.20943599 158.31774029 153.36313442 147.37258079 140.58854294
          133.36391235 125.81067392 117.96052603 109.95155607 101.89993988 93.94869288
          86.319549634 79.241852349 72.890980217 67.42098545 62.868198446 58.744454556
          47.370115682 42.930056105 38.159335882 33.085482166 28.276571966 24.13182139
          20.369760641 16.908665516 13.857866039 11.510835132 9.5942216806 7.6213293329
          5.8905201023 4.4173281944 3.2091198731 2.3480543774 1.7391587232 1.4252910616
          165.31006661 162.21280329 158.31884046 153.36349993 147.37271263 140.58858124
          133.36395166 125.81068999 117.9604086 109.95140205 101.89981941 93.948433456
          86.319009758 79.240531084 72.887077953 67.409172263 62.828885011 58.562528964
          49.090350863 43.589141368 38.45187901 33.32461284 28.513693609 24.351123024
          20.563473759 17.092037283 14.010891351 11.608942485 9.6561990103 7.6823770496
          5.9589416391 4.4950398533 3.2970507513 2.4364587306 1.8341583878 1.5051125924
          165.31785337 162.2166648 158.32011167 153.36391864 147.37286344 140.58862568
          133.36399563 125.81070913 117.96028506 109.95124154 101.89969257 93.948161663
          86.318428534 79.238926344 72.880507262 67.380547074 62.721958863 58.317340279
          51.256941098 45.377110217 39.445215478 33.836854348 28.862422163 24.618949837
          20.788264447 17.301141381 14.188318793 11.723064013 9.7214918952 7.7469812811
          6.0291890605 4.5707217376 3.3855558534 2.5262882316 1.9270762337 1.58312605
          165.32642382 162.22114829 158.32160338 153.364405 147.37303833 140.58867799
          133.36404621 125.81073255 117.96013582 109.95102251 101.89948265 93.947565235
          86.316853231 79.234129622 72.863277035 67.32277699 62.569397006 58.249377623
          53.185727216 47.752389584 41.435841303 35.207205173 29.849417978 25.312309174
          21.272786666 17.661652305 14.449359247 11.890308229 9.8137314426 7.8224827065
          6.1039164621 4.6448392729 3.4705416819 2.6177013337 2.0188369863 1.6674278353
          165.34124906 162.22960106 158.32457509 153.36542522 147.37343034 140.58880977
          133.36418174 125.81081904 117.95976808 109.95051769 101.89918805 93.946557055
          86.314329566 79.226409264 72.839603276 67.261538101 62.463150587 58.339123136
          54.722129151 49.785200146 43.496984917 37.142151584 31.518949668 26.68589775
          22.354114589 18.552546253 15.133343873 12.332836391 10.007145911 7.9157048386
          6.1893729872 4.72574137 3.562721246 2.7173314321 2.1131630904 1.7513720952
          165.3695173 162.24868163 158.33132113 153.36778835 147.37443153 140.58928963
          133.3646875 125.81124212 117.95935785 109.95003869 101.89939173 93.946025477
          86.312537661 79.219732121 72.819278894 67.217491002 62.418477555 58.565543973
          55.795804841 51.321349263 45.171887704 38.886685163 33.215705019 28.288405739
          23.81565455 19.90444649 16.31954845 13.280618504 10.614588484 8.2556419542
          6.3437239969 4.8391631317 3.6835429084 2.8321151937 2.2139793822 1.8460247325
          165.39113397 162.27689441 158.341554 153.37139985 147.37611485 140.59020333
          133.36565187 125.81209614 117.95923189 109.95021327 101.90072906 93.94681381
          86.31238933 79.215884713 72.804941869 67.190733171 62.419671796 58.849821618
          56.546932253 52.4799277 46.566728994 40.311616431 34.657630331 29.708898219
          25.218955324 21.238013626 17.633440717 14.533087794 11.688902176 9.1188867213
          6.9842125099 5.301650457 3.9750751369 3.0088613716 2.3391895073 1.9615799721
          165.38422267 162.30578179 158.35276889 153.37546992 147.37833863 140.59160703
          133.36702868 125.81351511 117.95992068 109.95139238 101.90303206 93.9487753
          86.313973686 79.215093688 72.79736848 67.179591995 62.460453203 59.157193976
          57.134103558 53.397066821 47.697608556 41.500966837 35.864916073 30.90406247
          26.432269816 22.421759349 18.849625988 15.74759721 12.905251954 10.328778619
          8.069915718 6.1822339014 4.6803883931 3.5933972596 2.8447569488 2.4284449224
          165.34725661 162.32984403 158.36331221 153.37951141 147.38092088 140.593606
          133.36900504 125.8153809 117.96130199 109.95340048 101.90585836 93.951815099
          86.317456439 79.217411035 72.796273364 67.183376667 62.533373062 59.451380419
          57.613650248 54.134559512 48.624238313 42.531610389 36.906648275 31.923726143
          27.455453012 23.445907727 19.899689348 16.83133543 14.044393756 11.524800341
          9.3188632673 7.4686540694 5.9153907745 4.6788336565 3.7958618001 3.311237861
          165.28786566 162.3478449 158.37294027 153.38340558 147.38350121 140.5959587
          133.37140851 125.81732083 117.96295105 109.95604513 101.9093405 93.955770926
          86.322207416 79.221844036 72.80037768 67.200089071 62.628145516 59.724440427
          58.026325504 54.758489767 49.423325663 43.443228848 37.819999282 32.808888174
          28.332501691 24.310585156 20.793892672 17.752050513 15.006526412 12.540140527
          10.381388289 8.5555583289 7.0183986276 5.7914735854 4.8862145218 4.3594886434
          165.21559451 162.3599165 158.38124178 153.38667239 147.38573065 140.59839156
          133.37400698 125.81945873 117.96490466 109.95889244 101.91293107 93.960211943
          86.327756862 79.227506182 72.808254318 67.22739213 62.741109635 59.993006541
          58.398739181 55.304197136 50.13100273 44.246250795 38.625541097 33.584750885
          29.088200147 25.051159587 21.556452959 18.527572053 15.803932094 13.364679872
          11.233139413 9.4080265373 7.8825317433 6.6550859705 5.7368671243 5.1945067477
          165.13890734 162.36640406 158.38795058 153.38952408 147.38780349 140.60078808
          133.37660205 125.82147689 117.96689147 109.96175584 101.91635176 93.964847346
          86.333847221 79.234514459 72.82006888 67.26480597 62.868033497 60.248136361
          58.733850051 55.780702487 50.753934396 44.954972637 39.339056122 34.273020819
          29.747494835 25.698218321 22.209474083 19.18304531 16.465958314 14.035517155
          11.90637247 10.076159758 8.5505231399 7.3143648091 6.3901846733 5.8451142532
          165.06569549 162.36820929 158.39299893 153.39184084 147.38964107 140.60305237
          133.3789828 125.82317792 117.96873816 109.96461706 101.91978254 93.969520705
          86.340130867 79.242633089 72.835445906 67.310867056 63.002866521 60.487799481
          59.037594957 56.20061963 51.304495764 45.583121921 39.973517695 34.886029693
          30.332072875 26.267309983 22.774067341 19.742583855 17.021528434 14.587262776
          12.446188036 10.606829206 9.0680892144 7.8197707074 6.8905945876 6.3470360021
          165.00194009 162.36625862 158.39627141 153.39353003 147.39118664 140.60503787
          133.38107942 125.82479244 117.97047463 109.96727 101.9231094 93.974059283
          86.346462885 79.251726722 72.854177839 67.364460695 63.142159703 60.714028773
          59.315931039 56.575012184 51.794162623 46.142865826 40.541388192 35.43129918
          30.851578376 26.767992878 23.264289882 20.223616312 17.495028595 15.048771984
          12.887959184 11.029807536 9.4704262216 8.2078567504 7.2718714162 6.7275396694
          164.95253252 162.36136671 158.39765655 153.39450615 147.39229872 140.60665975
          133.38295998 125.8262532 117.97194705 109.96966644 101.92629786 93.978624452
          86.353156565 79.261869787 72.876052099 67.424369099 63.282781238 60.926703008
          59.571327016 56.910041838 52.230048488 46.6422347 41.050666538 35.918043103
          31.311347092 27.210019789 23.693162761 20.641637807 17.903413488 15.438292895
          13.251629861 11.366288838 9.7819013873 8.5006964301 7.5533937102 7.0030217489
          164.92082248 162.354172 158.39704431 153.39469417 147.39292926 140.60788271
          133.38450569 125.82761358 117.9733068 109.97177311 101.92930744 93.983213114
          86.360164952 79.27290051 72.900612387 67.488807869 63.421224841 61.124483243
          59.804201996 57.208882974 52.616264016 47.085704391 41.505159154 36.353071693
          31.720346746 27.603708872 24.075557305 21.010394154 18.255507231 15.766000002
          13.548519668 11.630567342 10.015899613 8.7104110136 7.7471127885 7.1884220514
          164.90782842 162.34488994 158.39431952 153.39403781 147.39305161 140.60869512
          133.38571364 125.82889703 117.97484144 109.97387258 101.93202904 93.987418179
          86.366866917 79.284417999 72.927359071 67.556125319 63.555171874 61.307252086
          60.016282916 57.476148588 52.96098145 47.482704189 41.914520457 36.746274006
          32.090721856 27.956552739 24.416890069 21.333642425 18.557339686 16.04067376
          13.789005404 11.834379512 10.183794142 8.8476683466 7.863911655 7.296447896
          164.91453386 162.33317485 158.38927284 153.39247108 147.39263229 140.60907069
          133.38656821 125.8298323 117.97626626 109.97592824 101.93441981 93.991173072
          86.373210641 79.296349512 72.956011583 67.625376697 63.684480471 61.478622725
          60.211730077 57.718670825 53.272667917 47.842122321 42.287392769 37.105729225
          32.429435152 28.276079891 24.719157304 21.61569981 18.817261107 16.272334488
          13.985250902 11.987829903 10.291171388 8.9136732584 7.8972019461 7.3104600276
          164.93918367 162.31795243 158.38168532 153.39005279 147.391735 140.60899172
          133.38706522 125.83040944 117.9772771 109.9776132 101.93650806 93.994520484
          86.379290327 79.308921594 72.986798013 67.696629294 63.810432749 61.641218857
          60.394938345 57.942930188 53.555404048 48.16690913 42.625895206 37.433265367
          32.739900283 28.567480287 24.990547663 21.867475306 19.046780749 16.473284759
          14.146731057 12.095428164 10.339722785 8.9063238082 7.8374882069 7.212945591
          164.97489098 162.29725503 158.37130114 153.38671744 147.39034821 140.60854048
          133.3872784 125.83061919 117.97788966 109.97905697 101.93833156 93.997347774
          86.385126609 79.322282407 73.019939284 67.77031479 63.934356472 61.796026612
          60.568129132 58.152898498 53.814544921 48.463641403 42.937370534 37.736955346
          33.028339133 28.835900552 25.242004514 22.098727651 19.255398132 16.651655335
          14.278014756 12.160471476 10.330499255 8.8220734625 7.6778478142 6.9954526669
          165.00864044 162.26823892 158.35787698 153.38233662 147.3884299 140.60781487
          133.38726758 125.83042376 117.97815098 109.98022438 101.93965555 93.999510592
          86.390592473 79.336657799 73.05623023 67.847359485 64.058702594 61.94646533
          60.736281042 58.356383342 54.06219751 48.746565026 43.231911201 38.025903365
          33.30253103 29.091838407 25.48225868 22.317341572 19.454418056 16.816626233
          14.388798185 12.192741682 10.263003475 8.6432693346 7.3914832461 6.6334224866
          165.01770734 162.22799146 158.34137956 153.37723002 147.38647666 140.60669153
          133.38637618 125.82952069 117.97831267 109.98159262 101.94083875 94.001067298
          86.395268742 79.352069317 73.096450901 67.929047842 64.18651054 62.103421204
          60.909701166 58.556816743 54.304178719 49.024292804 43.521122556 38.312003431
          33.578134102 29.349688087 25.720548074 22.539818748 19.659835093 16.986452766
          14.504602658 12.21673682 10.145490187 8.3586293866 6.9245663871 6.0399244113
          164.97246886 162.17795088 158.32305369 153.37195665 147.38466865 140.60525221
          133.38477334 125.82844158 117.97877141 109.9827859 101.9409817 94.001838284
          86.400099813 79.368315926 73.138600179 68.012656105 64.314549324 62.261074184
          61.081016637 58.75018633 54.535835898 49.294012743 43.809587964 38.599594129
          33.855281772 29.610585608 25.964172958 22.781435945 19.893704382 17.205686156
          14.693943785 12.328675743 10.077931179 8.0496650967 6.2973616442 5.1604796258
          164.85922582 162.12387125 158.30512029 153.3668206 147.38281083 140.60366817
          133.38303325 125.8278666 117.97961851 109.9832367 101.93986957 94.001892943
          86.405146886 79.383309635 73.176194688 68.086674787 64.426373747 62.395805014
          61.226599436 58.915761237 54.733181786 49.525090859 44.0573753 38.844747459
          34.08565742 29.827066071 26.171636139 22.997368879 20.126329851 17.482433158
          15.046737185 12.792134445 10.682130582 8.7671632089 7.0774045654 5.9293622559
          164.6857362 162.06956312 158.28912694 153.36217466 147.3813269 140.60245553
          133.38144813 125.82756938 117.9804026 109.98317241 101.93894055 94.00207417
          86.408810602 79.394004828 73.20282729 68.138539108 64.503519664 62.487507545
          61.325314929 59.02729769 54.866932239 49.676720929 44.213748433 38.996556815
          34.223091611 29.949530131 26.289004119 23.123682351 20.281778394 17.705717169
          15.387982135 13.313795275 11.463956408 9.8347831752 8.4839280027 7.616573001
          164.48519128 162.01820894 158.27571822 153.35811641 147.38014234 140.60174328
          133.38027525 125.82733673 117.98103885 109.98310092 101.93866088 94.002549071
          86.410671931 79.400665544 73.219428878 68.169047925 64.547613838 62.539880831
          61.380747535 59.087912583 54.940407871 49.754992521 44.291269264 39.069987251
          34.285708525 30.000441307 26.337469516 23.179715652 20.362882582 17.8348999
          15.589984997 13.615738966 11.887658191 10.409286294 9.2364763611 8.5106587389
          164.30395551 161.97500775 158.26557155 153.35484002 147.37881516 140.60101863
          133.37942774 125.82728353 117.98176342 109.98336082 101.93853033 94.002526451
          86.411159073 79.40372055 73.227994844 68.184571331 64.568704209 62.566258741
          61.40644781 59.112972126 54.970870378 49.785860457 44.320905452 39.095683279
          34.30328122 30.011248315 26.348424205 23.197985124 20.399730501 17.903443293
          15.703557897 13.788514 12.136092038 10.755297896 9.6958548668 9.0603357792
          164.15789597 161.94128952 158.25832832 153.3526689 147.37791732 140.60046778
          133.37876843 125.82722666 117.98234607 109.98378191 101.93859574 94.00213659
          86.410436092 79.403503561 73.230423831 68.190104223 64.573333492 62.569103149
          61.408870749 59.115809848 54.974235848 49.786626336 44.319475258 39.091324337
          34.29349747 29.997033651 26.334540556 23.190040859 20.405554168 17.931355557
          15.761595974 13.886736003 12.288050754 10.979826468 10.004458782 9.4352260915
          164.04835106 161.9161608 158.25321718 153.35123186 147.37733394 140.60010302
          133.37835783 125.82720027 117.98267546 109.9837085 101.9380941 94.001380994
          86.409309053 79.402199988 73.229613704 68.188300703 64.565339324 62.552066094
          61.392448697 59.101597612 54.956117995 49.76322722 44.29362494 39.063600038
          34.261912639 29.962204398 26.299557385 23.159647921 20.386104662 17.92877787
          15.78047135 13.933592569 12.373482625 11.116148726 10.19735897 9.6712027573
          163.97515532 161.89933514 158.24988007 153.35022931 147.37686803 140.59982421
          133.37808311 125.82713338 117.98266781 109.98299884 101.93696597 94.000299698
          86.407840112 79.400001363 73.226219064 68.180784295 64.54857334 62.527562462
          61.365014766 59.070334664 54.916721682 49.717462975 44.245837547 39.014983436
          34.210367062 29.9077551 26.244296424 23.107832534 20.343308749 17.899651514
          15.766949874 13.939546099 12.407389416 11.184984249 10.304755243 9.8093643602
          163.93555383 161.89039653 158.24806481 153.34953439 147.37644037 140.59950369
          133.37772806 125.82691455 117.98243641 109.98211794 101.93563274 93.998759015
          86.405660075 79.396680982 73.220493472 68.168272116 64.523722169 62.49474881
          61.326928525 59.023094077 54.856645842 49.649529437 44.17625452 38.945398079
          34.138671701 29.833290841 26.168456159 23.03430661 20.277070467 17.844408771
          15.724120961 13.911553996 12.398676721 11.198447221 10.340541655 9.8611368756
          163.92632848 161.88882993 158.24759529 153.3490708 147.37600796 140.59911099
          133.37726267 125.82652729 117.98197363 109.98102254 101.93415536 93.99698237
          86.402903261 79.392247387 73.212572633 68.15112344 64.490425153 62.450062217
          61.275523702 58.959147156 54.775500366 49.558345464 44.083582735 38.853386972
          34.045156514 29.73706035 26.070069734 22.937262827 20.185944652 17.762253444
          15.651662685 13.849864382 12.349728877 11.162671033 10.316146063 9.8439844453
          163.94489503 161.89410142 158.24834292 153.34879519 147.37554939 140.59863296