<?xml version="1.0"?>
<VTKFile type="PolyData" version="0.1" byte_order="LittleEndian" header_type="UInt32" compressor="vtkZLibDataCompressor">
  <PolyData>
    <Piece NumberOfPoints="3588" NumberOfVerts="0" NumberOfLines="0" NumberOfStrips="0" NumberOfPolys="864">
      <PointData>
      </PointData>
      <CellData>
        <DataArray type="Float64" Name="electrons_temperature" format="ascii" RangeMin="0.29054527803" RangeMax="46.01815296">
          0.47250712548 0.52432081073 0.58282015368 0.6556511326 0.73302160945 0.80603603151
          0.87497148656 0.94048141172 1.0030148545 1.0644842569 1.1506040577 1.2604733916
          1.3599732239 1.4480964597 1.5274230806 1.6307853728 1.7823561613 1.9204835649
          2.0642122077 2.4071489266 3.4334412738 5.8631372448 9.0971720697 11.521097181
          12.82687875 12.420469417 11.178120995 9.9702118363 8.4281779356 6.3571974378
          4.382680786 2.6966742374 1.1982793113 0.56702841379 0.36637647935 0.29054527803
          0.53660407223 0.59934937948 0.67132399184 0.76071464872 0.85432723271 0.9425856309
          1.026953846 1.1084381485 1.1873608169 1.2658211377 1.3776087764 1.5210693868
          1.6531713466 1.7760984856 1.8925781667 2.0518486351 2.2914851547 2.5049188644
          2.7310925775 3.3457694523 4.939977833 7.1008454592 9.5295730528 11.671987327
          12.896630952 12.474454984 11.231473366 10.007476901 8.4623990169 6.3981959226
          4.4315298383 2.7643585254 1.2990256466 0.6173356954 0.38499467117 0.29871548972
          0.63525729767 0.71102903692 0.79865957284 0.90937374232 1.027090302 1.1391020145
          1.2465910947 1.3501472138 1.450712964 1.5542782798 1.7070033276 1.9047523623
          2.0903595857 2.2668685533 2.4382143064 2.6802546294 3.0388453628 3.3384897415
          3.6714814244 4.6332878626 6.6202884031 8.3321188168 10.057710428 11.8443003
          12.974891929 12.529664481 11.284653243 10.0469256 8.497655575 6.4396497821
          4.481475135 2.8301650268 1.3884430283 0.65022234739 0.39696290478 0.30958895245
          0.82150148775 0.92156747024 1.0379233036 1.1872006307 1.3496571054 1.5059362299
          1.6559727665 1.8008465832 1.9428944674 2.0912563994 2.3138729156 2.6043502252
          2.8791638146 3.1427741977 3.4008064234 3.7624429578 4.265349731 4.6560880306
          5.095843816 6.3326244133 8.3543282546 9.5079847885 10.6322468 12.040059667
          13.060381489 12.587197894 11.339068989 10.088303278 8.5346234172 6.4831920311
          4.5331425388 2.8922704471 1.4693001148 0.67816926566 0.40475725202 0.31097378712
          1.0707837277 1.2115893766 1.3759009666 1.5850131386 1.8107072755 2.0285314729
          2.2392443455 2.4422860485 2.641309275 2.8523176171 3.1737850784 3.5943898059
          3.988724525 4.3621807051 4.7196589745 5.210798208 5.8828054266 6.381663591
          6.9084877321 8.305409521 10.133278574 10.708170035 11.228982455 12.262315261
          13.152982023 12.648279834 11.394058899 10.13053879 8.5735362523 6.5293873251
          4.5870235905 2.9542729762 1.5471426931 0.70744217188 0.41601179667 0.32043008211
          1.3701033623 1.5517050734 1.7619509678 2.0329117939 2.3289731211 2.6173444966
          2.9001434761 3.1762872013 3.4500612152 3.7409443929 4.1811918522 4.7482854738
          5.2725240733 5.761872715 6.2231724738 6.8466350876 7.7050878574 8.3351991933
          8.9448489401 10.411372617 11.968336824 12.032377919 11.897099284 12.519585197
          13.251603166 12.711548185 11.451633637 10.175221366 8.6127181354 6.5752815063
          4.642269434 3.0197619417 1.6259726078 0.73700045144 0.43095069408 0.33106950082
          1.6770700388 1.9028455977 2.1656152539 2.5051140964 2.8801018431 3.2466429982
          3.6077427771 3.963752109 4.3163900007 4.6856841656 5.2344172217 5.9340728845
          6.5775620046 7.1742095743 7.7308682414 8.4727915731 9.5004038203 10.2752335
          10.981212363 12.580977247 13.929360782 13.554005004 12.708740088 12.822077517
          13.35694638 12.775514463 11.512481863 10.223100324 8.6532498256 6.6242376199
          4.700985678 3.0853916988 1.7035139194 0.77388372713 0.4501624022 0.34627409282
          1.9551187857 2.2390920339 2.568887738 2.9894938679 3.4518635899 3.9038998513
          4.3444049579 4.7758114747 5.1997290116 5.6299644029 6.2543621404 7.0609857255
          7.8081460386 8.5027526008 9.1483111816 9.9999274015 11.196202582 12.1272367
          12.964829171 14.797026093 16.000942122 15.279254879 13.81338475 13.222127698
          13.478601578 12.840959147 11.571926476 10.272285005 8.6958767311 6.6711116489
          4.756718999 3.1481747356 1.7782910878 0.81921948133 0.47514097055 0.36857307975
          2.2379014105 2.5861397928 2.9750948595 3.462170228 3.9990449341 4.5220499643
          5.0272579396 5.5171215746 5.9946875559 6.4768902232 7.1737339936 8.084030246
          8.9313034627 9.7202684782 10.454062068 11.417003767 12.782351228 13.8687555
          14.841559475 16.941086249 18.042067616 17.09343226 15.250508339 13.862241208
          13.643954269 12.91533918 11.633092979 10.321811786 8.7391124032 6.716334585
          4.8127009586 3.2145873973 1.8529713514 0.87424708819 0.49708034015 0.38584707338
          2.4854253359 2.8860293393 3.3327240359 3.8879751612 4.492432143 5.0753694677
          5.6328610735 6.1693415682 6.6840994049 7.2061582291 7.96429512 8.9594611967
          9.8936083883 10.771084275 11.592190105 12.674707369 14.237910527 15.505645017
          16.619460642 18.987845576 19.985527235 18.853724016 16.808490189 14.825448177
          13.933137706 13.005747696 11.698190125 10.373012669 8.7829618114 6.7643270453
          4.8743190918 3.2893464204 1.9325558642 0.93534283247 0.52250297932 0.39851776493
          2.6639504434 3.1121005377 3.6185073321 4.2426181949 4.9089024027 5.5475350031
          6.1584965755 6.7461684571 7.2977584072 7.8475312642 8.6473962322 9.7115185912
          10.72217237 11.680009062 12.58072959 13.77556523 15.569401122 17.069605905
          18.366687509 21.026269213 21.851388121 20.527849208 18.313745825 16.005861966
          14.43204234 13.132602801 11.770248542 10.425756869 8.826506473 6.8104721653
          4.9323904759 3.3627447717 2.0120245065 1.0011144049 0.55300049773 0.42953426998
          2.7702087075 3.2868482461 3.858618826 4.5391059552 5.250423885 5.9295526279
          6.5766583989 7.1987065853 7.7855265868 8.366367091 9.2107062448 10.346161657
          11.433647157 12.471547184 13.444367112 14.741897565 16.764902623 18.528678855
          20.04932888 23.025028683 23.617351215 22.126509212 19.731671563 17.222480167
          15.118050558 13.355606144 11.854662167 10.479174778 8.8698887919 6.8600648316
          4.9897143679 3.4327851556 2.0932964237 1.0794614783 0.59329400265 0.44722396792
          2.8261963143 3.3824728518 4.0065824686 4.7489673743 5.5167744142 6.2375741111
          6.9156301156 7.5599234273 8.169944519 8.7751887491 9.6551351574 10.854048756
          12.015033696 13.143591864 14.197281278 15.595614646 17.857195124 19.912042608
          21.685701609 24.995590213 25.324554144 23.652137462 21.060905725 18.383673684
          15.916294193 13.709241381 11.970820299 10.541681555 8.9120759294 6.9091814335
          5.0473563354 3.5002714575 2.1733420342 1.1599543161 0.63065613954 0.48077143083
          2.8172101061 3.3982482361 4.0573782281 4.8590174363 5.6913510808 6.4595668485
          7.1772727517 7.8624077593 8.4997456027 9.1138195345 10.011019299 11.259215941
          12.476913856 13.675564234 14.814990643 16.32856864 18.848058782 21.255959962
          23.341324495 26.928988228 26.997612493 25.112413941 22.314626636 19.457004695
          16.746612655 14.141136665 12.129690724 10.604291932 8.9558827907 6.9608704687
          5.1093274288 3.5712172512 2.2575909163 1.2519040649 0.68902638536 0.52763281548
          2.7403594473 3.3687606385 4.070714871 4.9216982649 5.8116661219 6.6140571386
          7.3474454375 8.0559290466 8.7206473797 9.3636547774 10.295157767 11.584584943
          12.843730221 14.088868178 15.294945487 16.926660858 19.697857327 22.511042508
          25.080030178 28.842906531 28.630674813 26.489221934 23.491507046 20.407242006
          17.507483717 14.590090295 12.318193426 10.663402128 9.0059710522 7.0145227339
          5.1744177285 3.648137355 2.3464994001 1.3440582424 0.75722485985 0.57427029946
          2.6582451348 3.3290121939 4.0819700566 4.9565907307 5.850370635 6.6716958816
          7.4285542222 8.1543178102 8.8437317445 9.5289652345 10.508270572 11.830988283
          13.123895124 14.423034993 15.691539803 17.425367929 20.451809481 23.654370168
          26.987869823 30.804585633 30.223861908 27.771768789 24.572749594 21.227040901
          18.140679487 15.012362474 12.519238781 10.730069363 9.0571001383 7.0667869359
          5.2358264979 3.71772513 2.4292828854 1.433479984 0.83872702939 0.64773202846
          2.5765325658 3.2832495631 4.0556797189 4.9218048872 5.8049672191 6.6442887961
          7.4364411395 8.1918283933 8.9121215009 9.6351940922 10.661319192 12.021409684
          13.33427565 14.658176844 15.99076344 17.838434687 21.136378894 24.712475422
          28.968120561 32.723923029 31.772570315 28.986837343 25.497704955 21.907310992
          18.632879051 15.362829335 12.708211436 10.800527705 9.1079041617 7.1231665395
          5.2991090592 3.7827027292 2.5129974479 1.5308514695 0.93384814838 0.72738337998
          2.5345434028 3.2607364864 4.0072275029 4.8554887918 5.7495858175 6.6047729547
          7.4201106598 8.2039715888 8.9606468173 9.7284559669 10.772582682 12.138767159
          13.475545367 14.822206218 16.203451784 18.163217323 21.702425333 25.761907292
          30.855038652 34.662155076 33.242027964 30.100842519 26.22788 22.442881904
          19.003745352 15.639451735 12.879037887 10.876872207 9.1597625796 7.1828847961
          5.3728989878 3.8544086193 2.5992781663 1.6330958191 1.0368523318 0.82072099779
          2.4628880931 3.1900676272 3.9300952465 4.7833173933 5.6891410846 6.555325497
          7.3860437573 8.190957377 8.9824304902 9.7748344419 10.816655316 12.17787821
          13.540410423 14.925253461 16.350388321 18.406699198 22.126230464 26.735189142
          32.859136636 36.597603806 34.514733777 30.984880391 26.762526758 22.841086495
          19.28057135 15.860740032 13.031549372 10.956555679 9.2165407742 7.2485081595
          5.4505526017 3.9321836573 2.6876587117 1.7403346873 1.1455067116 0.91349596974
          2.4168091406 3.1406324297 3.8793460615 4.7358255458 5.6457467145 6.5171653555
          7.3549987206 8.1692781908 8.9757552243 9.7759127547 10.819879058 12.179185312
          13.554017972 14.963520903 16.434457011 18.562674171 22.436247813 27.484729222
          35.312902604 38.307253033 35.568191925 31.608973176 27.148332331 23.134373389
          19.495499345 16.050250871 13.171580231 11.041104273 9.2754342631 7.3074027911
          5.5198428386 4.0146678517 2.7822590457 1.8488032593 1.245832713 0.99872011093
          2.3703713789 3.0906006449 3.8309953825 4.6909754712 5.6041564369 6.4803083697
          7.3237925693 8.1441836412 8.9558521392 9.7629567469 10.811216942 12.167330549
          13.550075378 14.976001277 16.48373572 18.659938657 22.658054551 28.049502893
          38.174132631 39.822842254 36.455614225 32.071169284 27.442906654 23.363651055
          19.679067762 16.225544535 13.307143704 11.129558728 9.3344129134 7.3652544101
          5.591529559 4.0944033514 2.8664017502 1.9489345525 1.343230813 1.0885252243
          2.325902787 3.042169996 3.7879920161 4.6533254378 5.5683832378 6.4476672982
          7.2941306744 8.1164183369 8.9267666691 9.7389288308 10.794336043 12.14999328
          13.538706342 14.975118279 16.503982579 18.703659177 22.784460171 28.445454173
          41.246760703 41.144476445 37.134295785 32.414244973 27.675170328 23.560993795
          19.850171561 16.395359619 13.442144314 11.221824095 9.3974553623 7.4303823323
          5.6701943329 4.1738647006 2.9444577417 2.0479587606 1.4506843378 1.176508386
          2.2917688292 3.0042254532 3.7579806692 4.6291968913 5.5453898413 6.4270478512
          7.2755026352 8.0985872612 8.9070382993 9.7225867043 10.782335919 12.13877502
          13.530208304 14.970048178 16.504159718 18.709634702 22.826117409 28.616941468
          44.026991953 42.056660449 37.585552354 32.665878568 27.876350975 23.74706178
          20.018672024 16.564086161 13.578226398 11.321657385 9.4684660428 7.5015513873
          5.7505927395 4.257044616 3.0329509478 2.1481615619 1.5436531181 1.2615822111
          2.269380638 2.9782522839 3.7400700231 4.6162572911 5.5325304743 6.4152837352
          7.2644515705 8.0872094058 8.8930673406 9.7104713664 10.773031381 12.131188071
          13.52485454 14.967008243 16.503590514 18.710135029 22.836726332 28.667346269
          46.01815296 42.570726178 37.89533584 32.877427684 28.071030405 23.934223323
          20.190338386 16.734270483 13.715047065 11.416859821 9.5326618468 7.5646612843
          5.8246523594 4.3384582636 3.1194789083 2.2481003289 1.6416910559 1.3457413454
        </DataArray>
        <DataArray type="Float64" Name="electrons_density" format="ascii" RangeMin="3.381150381e+18" RangeMax="1.3246492283e+20">
          2.7867083156e+19 2.9490242546e+19 3.1875401977e+19 3.5193456905e+19 3.8904015033e+19 4.2519569178e+19
          4.6016371624e+19 4.9398186192e+19 5.2651005716e+19 5.5836113424e+19 6.0325080675e+19 6.6349943307e+19
          7.2044744267e+19 7.71477372e+19 8.1518236251e+19 8.6846671177e+19 9.4338596439e+19 1.0075397867e+20
          1.0603248233e+20 1.1705714158e+20 1.2465583216e+20 9.669612575e+19 5.7682427745e+19 3.4694333316e+19
          2.288679668e+19 1.6525858242e+19 1.2771259172e+19 1.0099517143e+19 8.3700366286e+18 7.3373551788e+18
          6.6722717841e+18 6.3855537109e+18 6.4251454913e+18 5.3780064594e+18 4.0057370918e+18 3.381150381e+18
          6.0144175467e+19 6.1953019732e+19 6.4389456719e+19 6.778002138e+19 7.1576964713e+19 7.5232113467e+19
          7.8716412834e+19 8.2026025259e+19 8.5148179222e+19 8.8138278537e+19 9.2204843636e+19 9.7345267863e+19
          1.0188631475e+20 1.058040328e+20 1.0909469832e+20 1.1295807515e+20 1.1806995094e+20 1.2200090926e+20
          1.2494643662e+20 1.3120404021e+20 1.3246492283e+20 1.0713723828e+20 6.931482454e+19 4.0557935669e+19
          2.5512290596e+19 1.7838200344e+19 1.3597860464e+19 1.0684585704e+19 8.8284927896e+18 7.7311482226e+18
          7.0113000258e+18 6.6689494398e+18 6.5757638336e+18 5.6854926445e+18 4.6490467336e+18 4.3048395337e+18
          7.5917355299e+19 7.7894172984e+19 8.0237146214e+19 8.3247955115e+19 8.6455201067e+19 8.9434829532e+19
          9.2192842555e+19 9.4732943939e+19 9.7066176628e+19 9.9314823764e+19 1.0240255501e+20 1.0622779208e+20
          1.0956007197e+20 1.1239898512e+20 1.14743674e+20 1.1740417868e+20 1.2079278518e+20 1.2322679137e+20
          1.2478400038e+20 1.2779559589e+20 1.2463892775e+20 1.0175602991e+20 7.09234023e+19 4.3503630869e+19
          2.7360105315e+19 1.8851529725e+19 1.4259550528e+19 1.1188437402e+19 9.2360103317e+18 8.078316118e+18
          7.3025040103e+18 6.8977074006e+18 6.74368093e+18 6.0438471406e+18 5.2537459273e+18 5.0014007839e+18
          7.0916573321e+19 7.2882299591e+19 7.5053796368e+19 7.7704640597e+19 8.0461116264e+19 8.298234682e+19
          8.5281280223e+19 8.7374293041e+19 8.9282202331e+19 9.1118313148e+19 9.3650931253e+19 9.6865261792e+19
          9.9744966926e+19 1.0225300682e+20 1.0433148329e+20 1.0665882167e+20 1.0965508034e+20 1.1178048202e+20
          1.12986193e+20 1.1513830476e+20 1.1164962109e+20 9.3916196798e+19 6.9478673808e+19 4.4912111764e+19
          2.8604185385e+19 1.9587781568e+19 1.4753080225e+19 1.1595461139e+19 9.5611387585e+18 8.3586171751e+18
          7.545088627e+18 7.077166041e+18 6.8906142898e+18 6.3740937846e+18 5.7573569784e+18 5.52147999e+18
          5.8934709147e+19 6.0741944663e+19 6.2678660356e+19 6.5009891862e+19 6.7451962568e+19 6.9734006261e+19
          7.1867948594e+19 7.3828453993e+19 7.5605629669e+19 7.7318717457e+19 7.9689229862e+19 8.2752805594e+19
          8.5530962424e+19 8.7953594049e+19 8.9954829429e+19 9.215893008e+19 9.5010941709e+19 9.7078750028e+19
          9.8237067605e+19 1.0025785545e+20 9.7988962839e+19 8.546852199e+19 6.6579333818e+19 4.5344172464e+19
          2.9435947845e+19 2.0154049223e+19 1.5151444432e+19 1.1930992586e+19 9.8484111619e+18 8.6145651527e+18
          7.760298513e+18 7.2244203796e+18 7.0091795985e+18 6.6303523948e+18 6.1120628501e+18 5.8775776953e+18
          4.7991473244e+19 4.9687081831e+19 5.1487410612e+19 5.3674025495e+19 5.5995286919e+19 5.8168526194e+19
          6.0202190674e+19 6.2069653202e+19 6.3752507393e+19 6.535876216e+19 6.7556545189e+19 7.0398022131e+19
          7.2955877204e+19 7.5164507294e+19 7.6966603416e+19 7.8921433566e+19 8.146268565e+19 8.3357327645e+19
          8.4474606735e+19 8.6493724886e+19 8.5617562961e+19 7.7239563143e+19 6.2991315413e+19 4.5074164003e+19
          2.997251963e+19 2.0593882499e+19 1.5462833882e+19 1.2209900565e+19 1.0091348993e+19 8.8333352586e+18
          7.950498983e+18 7.3569199354e+18 7.1194434487e+18 6.8455025969e+18 6.3893684601e+18 6.1592928345e+18
          3.9704257732e+19 4.1324488707e+19 4.3045456614e+19 4.5131028067e+19 4.7333163002e+19 4.938200359e+19
          5.1268594311e+19 5.2996553588e+19 5.4564432854e+19 5.6042153027e+19 5.8027884108e+19 6.056685749e+19
          6.2821262757e+19 6.475011867e+19 6.6315539202e+19 6.8007963126e+19 7.0213311311e+19 7.1892853924e+19
          7.2942919214e+19 7.4872796327e+19 7.496533941e+19 6.9411499886e+19 5.8995196805e+19 4.4315693558e+19
          3.028329406e+19 2.0926508185e+19 1.5722138e+19 1.2448542689e+19 1.0300129953e+19 9.0209559225e+18
          8.1154834095e+18 7.4723115925e+18 7.2091374833e+18 7.0157755658e+18 6.5925031209e+18 6.366936914e+18
          3.3625942761e+19 3.5153960645e+19 3.6759046061e+19 3.8668685445e+19 4.0671588039e+19 4.2544218342e+19
          4.4275126974e+19 4.5864119712e+19 4.7317140112e+19 4.8672477705e+19 5.0451781326e+19 5.2719386074e+19
          5.4727969868e+19 5.6436708122e+19 5.7824845281e+19 5.9339173536e+19 6.1283464996e+19 6.2750788264e+19
          6.3709524137e+19 6.5506151848e+19 6.5980383003e+19 6.2123635019e+19 5.4543413108e+19 4.3116394606e+19
          3.04372112e+19 2.1186247017e+19 1.5927082006e+19 1.2647972769e+19 1.0481803731e+19 9.1933572485e+18
          8.267758463e+18 7.5739060095e+18 7.2764606111e+18 7.1301929528e+18 6.7106644526e+18 6.4868487109e+18
          2.8904408501e+19 3.0380133952e+19 3.1893795678e+19 3.3665390703e+19 3.5534066959e+19 3.7279005829e+19
          3.8878761957e+19 4.0337949044e+19 4.1659315448e+19 4.2883139452e+19 4.449886165e+19 4.6557103903e+19
          4.8375001508e+19 4.991843986e+19 5.1171926397e+19 5.2550358548e+19 5.4319963124e+19 5.562438435e+19
          5.6493153568e+19 5.8174059286e+19 5.874246209e+19 5.572879953e+19 4.986228575e+19 4.1266721228e+19
          3.0428612658e+19 2.1391735888e+19 1.6086753116e+19 1.2810241265e+19 1.0641124269e+19 9.327506112e+18
          8.3862300942e+18 7.6593071946e+18 7.3205016851e+18 7.2006820158e+18 6.821872181e+18 6.5952795193e+18
          2.5207195053e+19 2.6645406591e+19 2.811852583e+19 2.983279506e+19 3.1616330347e+19 3.3258347027e+19
          3.4745261394e+19 3.608403966e+19 3.7280182711e+19 3.8389079159e+19 3.9867485203e+19 4.1727263009e+19
          4.3358174635e+19 4.4741237373e+19 4.5877234159e+19 4.7155847716e+19 4.8794073556e+19 4.9979171037e+19
          5.0788160807e+19 5.2390555368e+19 5.2951059743e+19 5.0400681527e+19 4.5571941202e+19 3.8945733758e+19
          3.0093736489e+19 2.1577418931e+19 1.6221511463e+19 1.2941265455e+19 1.0774007502e+19 9.4527817436e+18
          8.4975081723e+18 7.7393932648e+18 7.3574884615e+18 7.2313844803e+18 6.9030442091e+18 6.6912615873e+18
          2.235445533e+19 2.375514633e+19 2.5195543662e+19 2.6854637267e+19 2.852642398e+19 3.0049189183e+19
          3.1427615583e+19 3.2677306753e+19 3.3777482695e+19 3.4782141515e+19 3.6132820919e+19 3.7827813722e+19
          3.9313002982e+19 4.0579478756e+19 4.1625263221e+19 4.2810580766e+19 4.4328050481e+19 4.5425061739e+19
          4.6184559831e+19 4.7689493405e+19 4.815439361e+19 4.5951598596e+19 4.1880455291e+19 3.652987342e+19
          2.9344949648e+19 2.1706365845e+19 1.633824679e+19 1.305139105e+19 1.0889817033e+19 9.5598190214e+18
          8.5880945501e+18 7.8084557041e+18 7.3949473501e+18 7.2504885473e+18 6.9401943797e+18 6.7146210225e+18
          2.0221973218e+19 2.1611392432e+19 2.3041670013e+19 2.4649949084e+19 2.6234869877e+19 2.7664072405e+19
          2.8943201885e+19 3.0092666622e+19 3.1100828028e+19 3.2019023628e+19 3.3253462453e+19 3.4801277019e+19
          3.6157685605e+19 3.7315643061e+19 3.8268219421e+19 3.934056865e+19 4.0724589366e+19 4.1739752804e+19
          4.2452241686e+19 4.3835722922e+19 4.4145443838e+19 4.2185907088e+19 3.8730190093e+19 3.4260125306e+19
          2.8413673883e+19 2.1704652475e+19 1.6447816543e+19 1.314439061e+19 1.0984418585e+19 9.6511298349e+18
          8.6614511733e+18 7.8612525729e+18 7.419189523e+18 7.2315676516e+18 6.9501753773e+18 6.7346988029e+18
          1.8518489967e+19 1.9927081786e+19 2.1389411091e+19 2.3012882276e+19 2.4580701512e+19 2.595224496e+19
          2.7146138734e+19 2.8189220222e+19 2.9096631562e+19 2.9919411545e+19 3.1010748157e+19 3.2378133034e+19
          3.3588398013e+19 3.4641643872e+19 3.549759911e+19 3.6453002014e+19 3.772459375e+19 3.8667942418e+19
          3.9329544851e+19 4.0589931676e+19 4.0699289533e+19 3.8974044893e+19 3.6072315467e+19 3.2254577502e+19
          2.7398506711e+19 2.1542162949e+19 1.652700037e+19 1.3220073552e+19 1.106870778e+19 9.7354216851e+18
          8.7235782448e+18 7.901345271e+18 7.4342314057e+18 7.2126162615e+18 6.9462889493e+18 6.7270879206e+18
          1.7364946028e+19 1.8789412133e+19 2.0250595789e+19 2.1864444989e+19 2.3395027749e+19 2.4689638443e+19
          2.5793681647e+19 2.6756533649e+19 2.7575100697e+19 2.8288301351e+19 2.9235726452e+19 3.0442340366e+19
          3.1509688479e+19 3.2439160867e+19 3.3201038754e+19 3.4061465199e+19 3.5228962087e+19 3.6104259694e+19
          3.6700682009e+19 3.77876367e+19 3.7654625704e+19 3.6203530129e+19 3.3800473772e+19 3.0501661166e+19
          2.6361230287e+19 2.1304513024e+19 1.6588727361e+19 1.3299310266e+19 1.1135415889e+19 9.800749985e+18
          8.7742796833e+18 7.9299074224e+18 7.4346809839e+18 7.165638522e+18 6.9040950757e+18 6.6774255096e+18
          1.6718452791e+19 1.8147912475e+19 1.9582775497e+19 2.1152373977e+19 2.2644062138e+19 2.3870013274e+19
          2.4879278921e+19 2.5764239346e+19 2.6514964134e+19 2.7165753149e+19 2.801208667e+19 2.9056224631e+19
          2.9957147371e+19 3.072973078e+19 3.1374420709e+19 3.211256358e+19 3.3120858156e+19 3.3899968628e+19
          3.4422644737e+19 3.5324377004e+19 3.4967040147e+19 3.3842144634e+19 3.1875492739e+19 2.9052395374e+19
          2.5449344903e+19 2.1046974423e+19 1.663199337e+19 1.3359702004e+19 1.1196657639e+19 9.8600817334e+18
          8.8145621548e+18 7.945784789e+18 7.4233894846e+18 7.1075854347e+18 6.8574604066e+18 6.6328816334e+18
          1.6292940234e+19 1.7764727315e+19 1.9245270927e+19 2.0804072502e+19 2.2235341061e+19 2.3424388156e+19
          2.4397499246e+19 2.5219016538e+19 2.5899691161e+19 2.6483632584e+19 2.7199212804e+19 2.8017268339e+19
          2.8705646984e+19 2.9303108711e+19 2.9810670154e+19 3.0404091158e+19 3.1256502257e+19 3.1911269972e+19
          3.2342635563e+19 3.304477775e+19 3.2565372557e+19 3.185046689e+19 3.0260092273e+19 2.7883538775e+19
          2.4698899751e+19 2.0785536659e+19 1.6654460442e+19 1.3412499361e+19 1.1247225244e+19 9.9034863803e+18
          8.8446038613e+18 7.9532662285e+18 7.4119743657e+18 7.0467105422e+18 6.7694769979e+18 6.5351449384e+18
          1.6150793149e+19 1.7687422302e+19 1.9209148336e+19 2.0754302804e+19 2.2146777965e+19 2.3312790196e+19
          2.4261384559e+19 2.5022290087e+19 2.5622989225e+19 2.6114272807e+19 2.6677484145e+19 2.7272337098e+19
          2.7748467869e+19 2.8158084125e+19 2.8526676311e+19 2.8978837083e+19 2.9686703758e+19 3.0219371909e+19
          3.0531599674e+19 3.0956274259e+19 3.0445439838e+19 3.0148630818e+19 2.897757921e+19 2.6975548519e+19
          2.4125422655e+19 2.05595115e+19 1.6663009761e+19 1.3459509209e+19 1.1285066491e+19 9.9360145094e+18
          8.8654037555e+18 7.9512208622e+18 7.3868114289e+18 6.9693536036e+18 6.6631466166e+18 6.4372720098e+18
          1.6150371701e+19 1.7726727064e+19 1.9213623858e+19 2.0718615354e+19 2.2093098456e+19 2.3216025963e+19
          2.4115205325e+19 2.482591096e+19 2.5381586651e+19 2.5832772198e+19 2.6313721297e+19 2.6780635649e+19
          2.7125199065e+19 2.7379685592e+19 2.758064555e+19 2.7813290248e+19 2.8283579914e+19 2.8743263518e+19
          2.8970669572e+19 2.8997990882e+19 2.8625029468e+19 2.872975837e+19 2.8025543009e+19 2.6296103719e+19
          2.3699423457e+19 2.0367120438e+19 1.6650572314e+19 1.3495390128e+19 1.1310221403e+19 9.9542585456e+18
          8.8753387836e+18 7.9387623094e+18 7.3491778788e+18 6.8837760169e+18 6.5345550251e+18 6.306677139e+18
          1.6334127208e+19 1.7938829703e+19 1.9417382646e+19 2.0901798773e+19 2.2242022008e+19 2.3306775248e+19
          2.4144367502e+19 2.4801737801e+19 2.5325366429e+19 2.5747686758e+19 2.6174403237e+19 2.6547892731e+19
          2.6755178956e+19 2.6831715062e+19 2.6830922041e+19 2.6778429956e+19 2.6921427476e+19 2.7348646662e+19
          2.7646237851e+19 2.7115413015e+19 2.7184509927e+19 2.7682372248e+19 2.7360031108e+19 2.5807340734e+19
          2.3380651511e+19 2.0198441074e+19 1.6621113191e+19 1.3520102509e+19 1.1321535314e+19 9.9521772216e+18
          8.8699706694e+18 7.9167197284e+18 7.3014188539e+18 6.7971791857e+18 6.4121196237e+18 6.1800391956e+18
          1.6474516576e+19 1.8102608614e+19 1.9594342172e+19 2.107958219e+19 2.2408742163e+19 2.3455063505e+19
          2.4274350573e+19 2.4919030973e+19 2.5441641127e+19 2.5861179471e+19 2.626935333e+19 2.6595060458e+19
          2.6718251798e+19 2.6656817586e+19 2.6459060344e+19 2.6086470057e+19 2.5775816227e+19 2.601709165e+19
          2.641564371e+19 2.5523728155e+19 2.6112887802e+19 2.6981799928e+19 2.68978346e+19 2.5453837293e+19
          2.3129663162e+19 2.0042802646e+19 1.6577784197e+19 1.3529386379e+19 1.1320712717e+19 9.9356671951e+18
          8.849763626e+18 7.8809696107e+18 7.244889838e+18 6.7111766655e+18 6.2970427763e+18 6.0697136873e+18
          1.6628608065e+19 1.8283562267e+19 1.9800390477e+19 2.1292559047e+19 2.2616503018e+19 2.3653840461e+19
          2.4462965243e+19 2.5098088775e+19 2.5610694429e+19 2.6023420088e+19 2.641861079e+19 2.6717160181e+19
          2.6794179571e+19 2.6648884686e+19 2.6312856465e+19 2.5708723715e+19 2.4911095689e+19 2.4703034688e+19
          2.5039615524e+19 2.4231014648e+19 2.5282737495e+19 2.6481939307e+19 2.6552281301e+19 2.5178898509e+19
          2.2912264245e+19 1.9890186104e+19 1.6519547151e+19 1.3523769592e+19 1.13075501e+19 9.906816062e+18
          8.8116143108e+18 7.8280016118e+18 7.1808382444e+18 6.6510390615e+18 6.2135386557e+18 5.9805197902e+18
          1.6768179444e+19 1.8446651008e+19 1.9993577154e+19 2.1495529986e+19 2.2817906514e+19 2.3856354753e+19
          2.4666872112e+19 2.5299763682e+19 2.5801193494e+19 2.6201059789e+19 2.6573099652e+19 2.6840691482e+19
          2.688108603e+19 2.667522076e+19 2.6242604679e+19 2.5489913817e+19 2.4268241215e+19 2.3471887893e+19
          2.3523946322e+19 2.3192314605e+19 2.4682987836e+19 2.6122197019e+19 2.6283506961e+19 2.4942499882e+19
          2.2707194097e+19 1.9735415777e+19 1.644835213e+19 1.3502940967e+19 1.1279148711e+19 9.852669598e+18
          8.7474531727e+18 7.7739091669e+18 7.1246672152e+18 6.5797875923e+18 6.1203170395e+18 5.8778727624e+18
          1.6868194763e+19 1.856089156e+19 2.0130581198e+19 2.1639997189e+19 2.2955909439e+19 2.3991776423e+19
          2.4799148482e+19 2.5424151496e+19 2.5909673186e+19 2.6292346337e+19 2.664607898e+19 2.6896929057e+19
          2.6928657015e+19 2.6716688044e+19 2.6270113639e+19 2.5454102708e+19 2.399940382e+19 2.2753909285e+19
          2.2191636134e+19 2.2532081435e+19 2.4305237549e+19 2.5865846392e+19 2.6052757318e+19 2.4719661279e+19
          2.2503258961e+19 1.9575534077e+19 1.636309419e+19 1.3461764608e+19 1.1229993286e+19 9.7761519684e+18
          8.6613316523e+18 7.6966190069e+18 7.0420140008e+18 6.500143448e+18 6.0354108587e+18 5.7928793394e+18
          1.6923588036e+19 1.8622139666e+19 2.0206339728e+19 2.1721705596e+19 2.3031242165e+19 2.4065199356e+19
          2.487073477e+19 2.5490114499e+19 2.5963296496e+19 2.6331222139e+19 2.6670595835e+19 2.6909240924e+19
          2.6934133025e+19 2.6718364239e+19 2.626628975e+19 2.5433177599e+19 2.3934790282e+19 2.2562380563e+19
          2.1482659813e+19 2.2194686974e+19 2.4055096079e+19 2.5653682176e+19 2.5830416014e+19 2.4495089379e+19
          2.2293087319e+19 1.9408887601e+19 1.6269491755e+19 1.3412460291e+19 1.1168321398e+19 9.6721242256e+18
          8.539734735e+18 7.5998513932e+18 6.9591484132e+18 6.4260876749e+18 5.9343629876e+18 5.686624776e+18
        </DataArray>
        <DataArray type="Float64" Name="ions_0_temperature" format="ascii" RangeMin="0.22828587612" RangeMax="43.853845631">
          0.4687095654 0.5185905338 0.57466188979 0.64520686309 0.72159670735 0.79459293488
          0.8636792059 0.92913722023 0.99111505538 1.0512579516 1.1357672022 1.247360777
          1.3525203429 1.4470200103 1.5302381878 1.6368876639 1.7943734323 1.9395570722
          2.0797274646 2.4291680024 3.1881158996 4.2730359138 5.4033793054 6.3641035521
          6.9909347959 7.0022172285 6.5360166729 5.8574744972 4.7724927013 3.4970638228
          2.3442221514 1.4324761463 0.80889324148 0.45331897232 0.29096151081 0.22828587612