<?xml version="1.0"?>
<VTKFile type="PolyData" version="0.1" byte_order="LittleEndian" header_type="UInt32" compressor="vtkZLibDataCompressor">
  <PolyData>
    <Piece NumberOfPoints="3588" NumberOfVerts="0" NumberOfLines="0" NumberOfStrips="0" NumberOfPolys="864">
      <PointData>
      </PointData>
      <CellData>
        <DataArray type="Float64" Name="electrons_temperature" format="ascii" RangeMin="0.92975400447" RangeMax="46.408927278">
          2.2578213738 2.9632248797 3.7321855789 4.6122777623 5.5276810597 6.4103197328
          7.259069133 8.0805648789 8.8831572635 9.7009491815 10.765214836 12.12566786
          13.521191491 14.965079966 16.503191311 18.710021568 22.841950072 28.683407711
          46.408927278 45.696930865 42.027687539 37.880202657 34.307731226 30.375745101
          26.239480155 22.257151672 18.758009585 16.027560523 13.578025041 11.802759367
          10.019002355 8.3038241401 6.9806405898 5.9441111018 5.2643245621 4.6827802053
          2.2559997 2.9579131302 3.7326246097 4.6156963191 5.5294758931 6.4109321106
          7.2582985547 8.0777670104 8.8764874879 9.6932124367 10.758290251 12.121555328
          13.518653224 14.963935277 16.503008961 18.709508209 22.845798491 28.683195666
          44.503173958 45.095645454 41.713578184 37.665039375 34.133086696 30.248811716
          26.116600471 22.147292937 18.642915888 15.934664668 13.49751629 11.754568093
          9.9753170213 8.258703685 6.9239520667 5.8930653424 5.2107301989 4.6256192221
          2.2631592894 2.9613739439 3.7400901221 4.6254208653 5.5370054686 6.4163149671
          7.2614637521 8.0782871151 8.8726295371 9.6867936546 10.751886558 12.118486267
          13.516914933 14.963393112 16.503049365 18.708227958 22.846553006 28.651931183
          42.464803202 44.289804254 41.414289366 37.452129793 33.954871869 30.118034116
          25.990219933 22.035805136 18.527269939 15.84401488 13.423216632 11.709929703
          9.9335077538 8.2140058399 6.8635954686 5.8380367392 5.1496397608 4.5629177622
          2.2789348636 2.9730819117 3.7535598524 4.6405966516 5.5495753017 6.4258332527
          7.2680397504 8.0817439429 8.8713655138 9.6813679949 10.745722003 12.116211857
          13.515717612 14.96325106 16.503247021 18.705368689 22.836414038 28.543255491
          40.501275645 43.221925704 41.064893672 37.211823492 33.756794291 29.976746736
          25.856615372 21.920728694 18.409994027 15.754125511 13.353573289 11.668712206
          9.8941424606 8.1700221395 6.8088870129 5.7906724753 5.0840518031 4.5020105392
          2.3030956134 2.9928519973 3.7722332009 4.6605392033 5.5667013695 6.4390681936
          7.2776828023 8.087866457 8.8724887203 9.6765418506 10.73923782 12.114208079
          13.514537755 14.963266186 16.501707182 18.682701459 22.76155814 28.235837567
          38.491631823 41.78261105 40.490009906 36.895398919 33.521447678 29.819302131
          25.713010337 21.800770187 18.290165441 15.66477861 13.285464727 11.624433997
          9.8509821258 8.120874181 6.7470131513 5.733784322 5.01567577 4.4441780657
          2.3360182365 3.0213060386 3.7960874798 4.6859446592 5.5896287155 6.4577335675
          7.2926836324 8.0993627069 8.87759464 9.6677807075 10.722800539 12.103365569
          13.496179928 14.931918137 16.447005655 18.580357195 22.540049293 27.637353676
          36.398715341 40.029737878 39.498931164 36.413253281 33.217650445 29.637444849
          25.556375051 21.674913522 18.167274176 15.576803514 13.218593936 11.574861385
          9.8025673499 8.0659791029 6.6809807447 5.6759672763 4.9435850952 4.3923554674
          2.3895743326 3.0718206461 3.8349887951 4.728017533 5.6317793608 6.4890209432
          7.3108080889 8.1012978656 8.8555225484 9.6090505994 10.653389866 12.034862028
          13.413443582 14.836902797 16.329607828 18.400476941 22.166454045 26.865675974
          34.32357067 38.239369614 38.172369903 35.743365322 32.822005946 29.424420441
          25.384175694 21.54209928 18.040222788 15.488567283 13.153581726 11.526529301
          9.7553380985 8.0103892644 6.6206452342 5.6243067675 4.8649543023 4.3480092583
          2.4513879906 3.1084784854 3.8452020277 4.7338656301 5.6397900315 6.4916425478
          7.2981188185 8.0695499509 8.8033836132 9.5293395412 10.557002626 11.930831136
          13.291109407 14.696847832 16.152178276 18.14549746 21.702427305 26.139816307
          32.268389101 36.471135189 36.70673498 34.934946145 32.324934462 29.17013188
          25.190045376 21.397821962 17.905016577 15.398629393 13.086451649 11.481329012
          9.7118070772 7.9549998068 6.5609093389 5.5655370047 4.7884815905 4.3087548869
          2.5160674468 3.1424910728 3.8569459113 4.7269142483 5.6271186442 6.4729631991
          7.2601939474 8.0158286252 8.7333348886 9.4331363481 10.434115306 11.791433033
          13.131213241 14.506721516 15.91097119 17.830848465 21.215799066 25.3529903
          30.228966905 34.650336081 35.199142247 33.992886966 31.696922216 28.837156441
          24.947573082 21.226423118 17.752262847 15.305370748 13.02037143 11.438938654
          9.6713613284 7.9004293569 6.502231142 5.5103730854 4.725045764 4.2655168027
          2.5969130332 3.1950439461 3.8814117739 4.7215198211 5.5954666138 6.411665213
          7.1760621305 7.9143482938 8.6100308824 9.2870172718 10.260636738 11.594398668
          12.918281561 14.265877559 15.614664885 17.451110907 20.643120516 24.351961463
          28.228638137 32.753858714 33.700233735 32.919249017 30.96374741 28.413144363
          24.637792016 21.01136004 17.572468086 15.20538833 12.957452817 11.395514786
          9.6279189732 7.8461464076 6.4486290773 5.4579931799 4.6706621148 4.2210881121
          2.6201513864 3.2019409987 3.8665233465 4.6784467804 5.516687892 6.2980942562
          7.0399611749 7.7497524346 8.4200350057 9.0825382832 10.033723012 11.341644062
          12.638697532 13.941243114 15.224558318 16.959729656 19.95010075 23.236872114
          26.384849705 30.884940755 32.209584321 31.738013319 30.189365417 27.926052272
          24.277941692 20.755231348 17.366764461 15.10004421 12.898298426 11.353547574
          9.5876063473 7.7967757172 6.4005977881 5.4090870768 4.6214121991 4.172358034
          2.6448247904 3.1929621322 3.8185759067 4.5907946804 5.391292627 6.1400337351
          6.8525615241 7.5319423037 8.1782265878 8.8235570743 9.7554767798 11.033115966
          12.291398132 13.537809266 14.754254028 16.403587326 19.226064053 22.137394266
          24.794786671 29.136645561 30.708037522 30.525299796 29.413410827 27.396194447
          23.88844559 20.46494122 17.14175927 14.991881501 12.848322253 11.317013809
          9.5527729721 7.7543767461 6.3566559048 5.3619459229 4.577637014 4.1227735438
          2.6602140613 3.1548223751 3.7368135006 4.4614767149 5.2235143368 5.9402337353
          6.6195227196 7.2673722302 7.8880046418 8.5151554547 9.4263742195 10.66617752
          11.878057885 13.068916123 14.229321222 15.812204839 18.450024068 21.016529238
          23.313430403 27.392263751 29.152254093 29.358847814 28.642907486 26.844334072
          23.489022112 20.147985656 16.91235642 14.887611157 12.804097745 11.284147278
          9.5199305592 7.710941856 6.3147040841 5.3159941583 4.5374590759 4.0703252911
          2.594688859 3.0578673293 3.6027193835 4.2835881972 5.0048885467 5.6811522191
          6.3226546199 6.9405698492 7.5388010567 8.1482235768 9.0328349687 10.227440584
          11.388215571 12.522192531 13.624917519 15.129869973 17.550311182 19.802208077
          21.802010136 25.588236247 27.576406776 28.245652054 27.862315711 26.298275257
          23.101013577 19.832717067 16.708474581 14.802010385 12.762664008 11.251943628
          9.4898510875 7.6691701515 6.2758883565 5.2723069765 4.4998179009 4.016138566
          2.509862668 2.9395544965 3.431309293 4.0525795028 4.7200333721 5.3530885204
          5.9594709374 6.5480195975 7.1206252149 7.7074601959 8.5633951711 9.7085089994
          10.810024436 11.88087502 12.929350427 14.349035086 16.555215145 18.53160256
          20.285187477 23.815142096 26.080490902 27.16195572 27.093965354 25.799885575
          22.739882437 19.556339039 16.55114611 14.739005192 12.725921906 11.21950117
          9.4609275032 7.6313305015 6.2385333978 5.229243135 4.4670149805 3.9650884406
          2.4082115166 2.7821391618 3.2132621611 3.7629265927 4.3714736685 4.9703037325
          5.5478388884 6.1076602224 6.6532607185 7.2143183317 8.036105801 9.1277405252
          10.171138212 11.185651861 12.178920107 13.502199003 15.514500254 17.264897867
          18.830391114 22.123221972 24.646985401 26.102698422 26.383469374 25.375052605
          22.42897086 19.340950457 16.439887773 14.689714046 12.69182937 11.189589698
          9.4344015261 7.5927045962 6.2027637505 5.1892408632 4.4373644022 3.9227372706
          2.2253934027 2.5612135728 2.9490137429 3.4450512405 4.0041959548 4.5613478457
          5.1028029182 5.6292796758 6.1417487977 6.6710296595 7.4533465982 8.488756141
          9.4768576131 10.432790094 11.351806727 12.577334444 14.420638125 15.982904439
          17.393169643 20.462752003 23.225005202 25.109131517 25.778525218 25.025015747
          22.187027762 19.185182867 16.360527646 14.645313288 12.659416174 11.161188483
          9.4074679604 7.5560951256 6.171112986 5.1520163248 4.4116100224 3.8870157185
          2.0104362014 2.3118688024 2.6632166633 3.1158237099 3.6196493121 4.1171919101
          4.6078049876 5.0900310539 5.5633688215 6.0586393429 6.797177667 7.7688090443
          8.6906999068 9.5729335668 10.414705044 11.55234028 13.243780378 14.643820755
          15.935374959 18.800477266 21.85421417 24.249075629 25.295243492 24.750236829
          22.007091359 19.07426342 16.298503644 14.602823231 12.624035783 11.129892112
          9.3814197412 7.5207512071 6.1416704261 5.11721915 4.3886196652 3.8568503794
          1.7973251584 2.0499873958 2.3510033717 2.7446319665 3.1822190697 3.619470715
          4.053399907 4.4862471619 4.9213026665 5.3832812168 6.0763524918 6.9794798509
          7.8290906608 8.6355482782 9.4120561023 10.484320765 12.052359423 13.319694446
          14.504160744 17.239275423 20.646644164 23.547666878 24.909533173 24.53996394
          21.868223754 18.990127577 16.245139238 14.564847656 12.5877154 11.096708537
          9.3565041248 7.4852743519 6.114091352 5.0841482551 4.3631315736 3.8276985128
          1.5521056457 1.7599347935 2.0120452683 2.3435353252 2.714999923 3.0907259043
          3.473129677 3.8586043937 4.2510030167 4.675951659 5.3219130745 6.1577974426
          6.9414009212 7.6872720292 8.4179488525 9.4374617965 10.899037834 12.055690093
          13.169727128 15.872403094 19.625483428 22.969742778 24.593138893 24.372795559
          21.756455821 18.92066086 16.196703752 14.530421709 12.554915219 11.068030393
          9.3320632586 7.4482477934 6.0886280206 5.0524241324 4.3368206592 3.8006327813
          1.302588312 1.4752133457 1.6856409215 1.9639360419 2.2763240592 2.5957936967
          2.9237492425 3.2581989613 3.6054685387 3.9877476607 4.5798725255 5.3480351764
          6.0726890502 6.771467597 7.4578218929 8.4165922738 9.7848790751 10.860957154
          11.957264427 14.636855044 18.724244406 22.480426919 24.329228449 24.233539588
          21.665358099 18.861365814 16.15280192 14.497818561 12.523395074 11.037486031
          9.3027606197 7.4038690197 6.0553494793 5.0144187337 4.3125795054 3.780586005
          1.12603762 1.2699071777 1.4453403757 1.6774198189 1.9382641333 2.202358921
          2.4716782147 2.7508095869 3.044418204 3.3727956131 3.8897204745 4.5710047207
          5.2250316419 5.8666056985 6.5056213299 7.4158859883 8.7278717005 9.7613716425
          10.829776635 13.502095102 17.921229756 22.06064958 24.107858469 24.115374604
          21.590055732 18.809609997 16.113383889 14.467250609 12.492741477 11.005409009
          9.2719745315 7.3608577595 6.0208084857 4.9724586156 4.2910329042 3.7670785399
          1.0436538178 1.1676304561 1.3180889651 1.515773845 1.7363427799 1.9539492736
          2.171711195 2.3971734621 2.6357201468 2.9024349474 3.3236901838 3.8947387695
          4.4585922204 5.0310308665 5.61953545 6.485708998 7.7622880686 8.7722345913
          9.851587263 12.528960178 17.259179938 21.713935613 23.924213043 24.01916732
          21.52732508 18.763562177 16.077607922 14.438923409 12.463939557 10.976092565
          9.2447783533 7.3210150242 5.9898010905 4.9308829089 4.270173563 3.7577867698
          0.92975400447 1.0355282905 1.1615613828 1.3238256641 1.501082725 1.6743339396
          1.8491433948 2.0332589511 2.231314407 2.4591367245 2.8266330891 3.2868715756
          3.7483852441 4.2392593982 4.783731136 5.6699196922 6.9613216611 7.8994899176
          9.0556552476 11.77338738 16.768391873 21.448606598 23.777870515 23.947200646
          21.475235292 18.722668787 16.04487408 14.412671787 12.43694311 10.948025884
          9.2188461604 7.2808583178 5.959828279 4.8865473456 4.2486744167 3.7483650929
        </DataArray>
        <DataArray type="Float64" Name="electrons_density" format="ascii" RangeMin="2.8340423607e+18" RangeMax="7.2949469685e+19">
          1.6936652983e+19 1.8633953776e+19 2.0225922918e+19 2.1746113912e+19 2.3051002974e+19 2.4084911678e+19
          2.4891059896e+19 2.5508307378e+19 2.5973618327e+19 2.6330515226e+19 2.6659480051e+19 2.6889607977e+19
          2.6909951087e+19 2.6693840076e+19 2.6242079031e+19 2.5400158793e+19 2.3903738246e+19 2.2539022873e+19
          2.1145068863e+19 2.1227421088e+19 2.2774288279e+19 2.3666307694e+19 2.2607313919e+19 2.106346399e+19
          1.9689739685e+19 1.8509058039e+19 1.7213713377e+19 1.5082337415e+19 1.3053049216e+19 1.1279663999e+19
          1.0273147234e+19 9.4862349594e+18 8.8840061056e+18 8.3679437162e+18 7.9249412498e+18 7.4881081752e+18
          1.6911724173e+19 1.8601363709e+19 2.0194942822e+19 2.171885741e+19 2.3021110663e+19 2.4056916908e+19
          2.4866134925e+19 2.5484836347e+19 2.5946931753e+19 2.6296954635e+19 2.6619004915e+19 2.6843589154e+19
          2.6861231661e+19 2.6647656669e+19 2.6202206977e+19 2.5358150912e+19 2.3879354748e+19 2.2591758011e+19
          2.1677850047e+19 2.155720593e+19 2.2998627284e+19 2.3854419911e+19 2.2771573012e+19 2.1201344976e+19
          1.9827474655e+19 1.8639093851e+19 1.7328894299e+19 1.5142525234e+19 1.3082845631e+19 1.1337110718e+19
          1.0386570758e+19 9.6457678513e+18 9.0303001279e+18 8.4509650265e+18 7.9761161155e+18 7.5877784594e+18
          1.6852981584e+19 1.8528398588e+19 2.0117191063e+19 2.1643335214e+19 2.2944958756e+19 2.3984445254e+19
          2.4798886164e+19 2.5422385827e+19 2.588615891e+19 2.6234551711e+19 2.6553378014e+19 2.6775592979e+19
          2.6792404977e+19 2.6583256008e+19 2.6149913806e+19 2.5314865232e+19 2.3876285688e+19 2.2792212799e+19
          2.243566366e+19 2.2019849753e+19 2.3217814996e+19 2.4043437881e+19 2.2941187197e+19 2.13445378e+19
          1.9968086734e+19 1.8767827612e+19 1.7436105349e+19 1.5187126396e+19 1.3093745392e+19 1.137649802e+19
          1.0470571562e+19 9.761554513e+18 9.1268001265e+18 8.5141435341e+18 8.015897091e+18 7.6633179537e+18
          1.6764401423e+19 1.8417986978e+19 1.9995357138e+19 2.1521973402e+19 2.2825629174e+19 2.3870890167e+19
          2.4692481144e+19 2.5323572021e+19 2.5793891622e+19 2.6147397725e+19 2.6467331992e+19 2.669098761e+19
          2.6708699041e+19 2.6505203627e+19 2.6087606232e+19 2.5270793972e+19 2.3955981761e+19 2.334958478e+19
          2.3354665295e+19 2.2688874037e+19 2.348486256e+19 2.4260758858e+19 2.31321759e+19 2.1500414453e+19
          2.0115587598e+19 1.8896934679e+19 1.753504888e+19 1.5217309938e+19 1.3088536591e+19 1.14001696e+19
          1.0532048666e+19 9.8506563695e+18 9.1844938605e+18 8.5234803662e+18 7.9931252282e+18 7.6923785272e+18
          1.665322358e+19 1.8275709885e+19 1.98355078e+19 2.1361796526e+19 2.2671734347e+19 2.3725130175e+19
          2.4555553725e+19 2.5196514152e+19 2.5677508469e+19 2.6040688613e+19 2.6362703136e+19 2.6582408624e+19
          2.658013986e+19 2.6345984743e+19 2.594276868e+19 2.5316368055e+19 2.4483071433e+19 2.4384397883e+19
          2.4466738434e+19 2.3711865705e+19 2.3947753719e+19 2.4553923933e+19 2.3362384347e+19 2.1675432091e+19
          2.0272655246e+19 1.9027114707e+19 1.7625255159e+19 1.5232230227e+19 1.3068284735e+19 1.1410816974e+19
          1.0576875565e+19 9.9174640356e+18 9.225249324e+18 8.5139368618e+18 7.9678138151e+18 7.6831661522e+18
          1.6539030932e+19 1.8117198632e+19 1.9653760847e+19 2.1175563569e+19 2.2490010161e+19 2.3541962962e+19
          2.4367930123e+19 2.4998924857e+19 2.5465112714e+19 2.5813210138e+19 2.6133544527e+19 2.6353301073e+19
          2.6413581575e+19 2.6340824688e+19 2.6171242509e+19 2.586709382e+19 2.553423212e+19 2.5655870076e+19
          2.5696102539e+19 2.5065557125e+19 2.47877207e+19 2.5016772088e+19 2.3664655282e+19 2.1879324645e+19
          2.0442421364e+19 1.9158573337e+19 1.7704950532e+19 1.5229272533e+19 1.3030352789e+19 1.1404592122e+19
          1.0599939851e+19 9.9581952106e+18 9.2343225893e+18 8.4927761756e+18 7.9353775541e+18 7.6709441365e+18
          1.6406553083e+19 1.7915042554e+19 1.9387978022e+19 2.0879850441e+19 2.2183735133e+19 2.3244370036e+19
          2.4112747753e+19 2.4808667823e+19 2.534756599e+19 2.5764006775e+19 2.617623133e+19 2.6494415993e+19
          2.6651014841e+19 2.6699825147e+19 2.6697676546e+19 2.6667994762e+19 2.6732491226e+19 2.6915522318e+19
          2.6948486839e+19 2.6555956532e+19 2.5984209879e+19 2.5692708889e+19 2.4066135135e+19 2.2119482949e+19
          2.0626714854e+19 1.9290827649e+19 1.7772321801e+19 1.5205828836e+19 1.2967875572e+19 1.137422885e+19
          1.0593426876e+19 9.9706498657e+18 9.2253303709e+18 8.4486102923e+18 7.8864937857e+18 7.6616757568e+18
          1.6261249923e+19 1.7752776557e+19 1.9223414946e+19 2.0775501574e+19 2.2150857088e+19 2.3265463187e+19
          2.4175256966e+19 2.4905238082e+19 2.5475378197e+19 2.5916851952e+19 2.6381235088e+19 2.6804898492e+19
          2.7080949499e+19 2.7268478417e+19 2.7421431797e+19 2.7589819464e+19 2.7866292545e+19 2.8108623841e+19
          2.8234474256e+19 2.8144469537e+19 2.7432452108e+19 2.6559667532e+19 2.4588664047e+19 2.2410516312e+19
          2.0833093663e+19 1.9427051648e+19 1.7825529589e+19 1.515821021e+19 1.2875940091e+19 1.1321163748e+19
          1.0561513511e+19 9.9598157276e+18 9.196868787e+18 8.3898572607e+18 7.8431120408e+18 7.5862432504e+18
          1.6287422152e+19 1.7782188456e+19 1.9262316556e+19 2.0820360157e+19 2.2208398478e+19 2.3331650975e+19
          2.4233538846e+19 2.4972023868e+19 2.5569239289e+19 2.6049962707e+19 2.6608423677e+19 2.720313127e+19
          2.7659475819e+19 2.8019648206e+19 2.8314539688e+19 2.8629750542e+19 2.9066431308e+19 2.9438713532e+19
          2.9676972446e+19 2.9887596823e+19 2.9085046715e+19 2.7644409286e+19 2.5288425711e+19 2.2807700459e+19
          2.1096186731e+19 1.9582178372e+19 1.7862677568e+19 1.5078725044e+19 1.276067076e+19 1.1249666859e+19
          1.0503968318e+19 9.9212790905e+18 9.1511460401e+18 8.3336862236e+18 7.8080883687e+18 7.4891597213e+18
          1.6350608226e+19 1.7807225095e+19 1.9279849462e+19 2.0860820607e+19 2.2298595281e+19 2.3469026856e+19
          2.4424257195e+19 2.5223556738e+19 2.5877667232e+19 2.6417434368e+19 2.7073907514e+19 2.7823841641e+19
          2.8444868144e+19 2.8966255452e+19 2.940078736e+19 2.9887656811e+19 3.0549854071e+19 3.1071874312e+19
          3.1401140265e+19 3.1840484376e+19 3.091942935e+19 2.8984549504e+19 2.6168770403e+19 2.3335876237e+19
          2.1439241163e+19 1.9767199509e+19 1.7877974066e+19 1.495965223e+19 1.2614744055e+19 1.1152851329e+19
          1.0416232102e+19 9.858313824e+18 9.0909514641e+18 8.2675977082e+18 7.7327650001e+18 7.375966527e+18
          1.6828973697e+19 1.8218243529e+19 1.964361371e+19 2.1218040903e+19 2.2680160696e+19 2.3891989566e+19
          2.4913884476e+19 2.5776818242e+19 2.6495745579e+19 2.7115348295e+19 2.7889814271e+19 2.8814794935e+19
          2.9612469303e+19 3.0295377673e+19 3.0857602983e+19 3.1475772034e+19 3.2300557239e+19 3.2931891252e+19
          3.3325961897e+19 3.3898787137e+19 3.2932236052e+19 3.0596552997e+19 2.718929191e+19 2.3978559182e+19
          2.1849615941e+19 1.9971910798e+19 1.7856908578e+19 1.4795106068e+19 1.2457809566e+19 1.1048857389e+19
          1.0318694666e+19 9.7869137987e+18 9.0251961669e+18 8.203566091e+18 7.6571080008e+18 7.2615614777e+18
          1.7474705594e+19 1.8819456485e+19 2.0212097519e+19 2.1792663026e+19 2.3293996974e+19 2.4564272744e+19
          2.5655512191e+19 2.6590313968e+19 2.7385293706e+19 2.8090955699e+19 2.899662583e+19 3.0099807133e+19
          3.1052792924e+19 3.1858077317e+19 3.2510528915e+19 3.3223610295e+19 3.4156043004e+19 3.4859539066e+19
          3.5305621616e+19 3.599263224e+19 3.5148123638e+19 3.242692758e+19 2.8318825838e+19 2.4725013808e+19
          2.2316052195e+19 2.0182827391e+19 1.7783032893e+19 1.4580034024e+19 1.2297933091e+19 1.0932179017e+19
          1.0198661645e+19 9.7001015182e+18 8.9439066046e+18 8.1137008114e+18 7.5341273526e+18 7.108959108e+18
          1.8169169198e+19 1.9501946996e+19 2.0914973498e+19 2.2529033871e+19 2.4092165278e+19 2.5440474506e+19
          2.6606139345e+19 2.7615531537e+19 2.8487935717e+19 2.9278144075e+19 3.0309401601e+19 3.1572745934e+19
          3.2659538874e+19 3.357358103e+19 3.4314489247e+19 3.5136225039e+19 3.6195373171e+19 3.6973203489e+19
          3.7486344908e+19 3.8339457717e+19 3.7684006762e+19 3.4411776944e+19 2.9561893581e+19 2.5560968984e+19
          2.2815030484e+19 2.0376498897e+19 1.7643100808e+19 1.4338953052e+19 1.2129349237e+19 1.0812461571e+19
          1.0076071149e+19 9.5987729184e+18 8.8480039659e+18 8.0159739831e+18 7.4049943252e+18 6.9519170989e+18
          1.9392003563e+19 2.0677961403e+19 2.2051214872e+19 2.365247266e+19 2.5247717177e+19 2.6646843122e+19
          2.7872032569e+19 2.8957605152e+19 2.9916630062e+19 3.0798538638e+19 3.1955595529e+19 3.3382538409e+19
          3.4617508778e+19 3.5662438053e+19 3.6512909956e+19 3.745389312e+19 3.8659474829e+19 3.9534025065e+19
          4.0112621306e+19 4.1121433906e+19 4.054086765e+19 3.6551912347e+19 3.0951325256e+19 2.646040588e+19
          2.3307657116e+19 2.0503997818e+19 1.7434064387e+19 1.4101118925e+19 1.1962015573e+19 1.0671659584e+19
          9.9347675088e+18 9.4858622869e+18 8.7367487191e+18 7.8891790095e+18 7.2272812424e+18 6.7615731358e+18
          2.0959593657e+19 2.2208716313e+19 2.3526364953e+19 2.5107405728e+19 2.6742235364e+19 2.8215318389e+19
          2.9530989054e+19 3.0713374587e+19 3.1769123454e+19 3.275088099e+19 3.4048696077e+19 3.5653064503e+19
          3.7035524207e+19 3.8204905483e+19 3.9175036269e+19 4.0245131511e+19 4.1582838674e+19 4.2548572819e+19
          4.3176012485e+19 4.4280308709e+19 4.3598070326e+19 3.888728389e+19 3.2460290246e+19 2.7359982085e+19
          2.3755159101e+19 2.0529950725e+19 1.7177597857e+19 1.3871916073e+19 1.1799097983e+19 1.052553468e+19
          9.7879160829e+18 9.3570014845e+18 8.6029891926e+18 7.7476266038e+18 7.0612252266e+18 6.5789066601e+18
          2.2623743907e+19 2.3879870699e+19 2.5204258296e+19 2.6788015633e+19 2.8466666385e+19 3.0046126641e+19
          3.1480018485e+19 3.2768182205e+19 3.3920182826e+19 3.4995901398e+19 3.6426102612e+19 3.8207387289e+19
          3.9748762177e+19 4.105036237e+19 4.2131448983e+19 4.3320894565e+19 4.4794272832e+19 4.5856012253e+19
          4.6535986083e+19 4.7713293311e+19 4.6923967805e+19 4.1450795762e+19 3.4012160756e+19 2.8195136651e+19
          2.4102021746e+19 2.0444606607e+19 1.6900257999e+19 1.3638414018e+19 1.1625995291e+19 1.0368896131e+19
          9.627733136e+18 9.2049908242e+18 8.4512421503e+18 7.5902526616e+18 6.8807980646e+18 6.4615935503e+18
          2.4653024797e+19 2.5877922615e+19 2.7169567069e+19 2.8731895898e+19 3.0427878269e+19 3.2071348247e+19
          3.3597995306e+19 3.4992471552e+19 3.6241781141e+19 3.7412639155e+19 3.8991747865e+19 4.0989384582e+19
          4.2746366652e+19 4.423716827e+19 4.5443814049e+19 4.6758513549e+19 4.8420390069e+19 4.9618890363e+19
          5.037469564e+19 5.1665667614e+19 5.0713836068e+19 4.418426583e+19 3.5493232996e+19 2.8914923843e+19
          2.4294754533e+19 2.0254266075e+19 1.6603372441e+19 1.3385640377e+19 1.1441176894e+19 1.019532877e+19
          9.4438091265e+18 9.0441885971e+18 8.2889257033e+18 7.4210956176e+18 6.71384719e+18 6.302790906e+18
          2.6877310109e+19 2.8073499989e+19 2.93526474e+19 3.0943853454e+19 3.2687269339e+19 3.438045804e+19
          3.5988878972e+19 3.7487846547e+19 3.8855845485e+19 4.0152843499e+19 4.1920941472e+19 4.4190484388e+19
          4.619882702e+19 4.7908354236e+19 4.9289738047e+19 5.0785670357e+19 5.2684213628e+19 5.4048221204e+19
          5.4888138445e+19 5.6309661962e+19 5.4947483276e+19 4.687499473e+19 3.6787350339e+19 2.9451287072e+19
          2.4306715515e+19 1.9967240748e+19 1.6281241535e+19 1.3110176777e+19 1.1200132609e+19 9.973281857e+18
          9.2522423833e+18 8.856874415e+18 8.1073124167e+18 7.234844644e+18 6.4984046754e+18 6.1155117881e+18
          2.9331218922e+19 3.0541892857e+19 3.1864244398e+19 3.3524933089e+19 3.5355301182e+19 3.7134266681e+19
          3.8833976402e+19 4.0429601718e+19 4.1916257137e+19 4.3354134894e+19 4.532602438e+19 4.7877686471e+19
          5.0145170926e+19 5.2062174592e+19 5.3618474767e+19 5.5331243494e+19 5.7513873358e+19 5.9080831263e+19
          5.9987120073e+19 6.1445579882e+19 5.9245488557e+19 4.9304062342e+19 3.7834865828e+19 2.9744164695e+19
          2.4122411511e+19 1.9575473454e+19 1.5909194206e+19 1.2815203492e+19 1.0950503112e+19 9.7392688076e+18
          9.0384854322e+18 8.6551544053e+18 7.9212474738e+18 7.0272912071e+18 6.2064530254e+18 5.8618093857e+18
          3.2180509225e+19 3.3382839667e+19 3.4711366204e+19 3.6389469153e+19 3.8236834843e+19 4.0053720172e+19
          4.1817730098e+19 4.3487320397e+19 4.505207771e+19 4.6581691375e+19 4.870726659e+19 5.1492533678e+19
          5.3997344996e+19 5.6137001266e+19 5.7878538899e+19 5.9797003708e+19 6.2251903057e+19 6.3997135088e+19
          6.4942882937e+19 6.6321608813e+19 6.3121361296e+19 5.1303618163e+19 3.8539855013e+19 2.9731251864e+19
          2.3702731634e+19 1.9064253906e+19 1.5467502218e+19 1.2463486397e+19 1.0657587973e+19 9.4903014846e+18
          8.7991833686e+18 8.4014912873e+18 7.7086714998e+18 6.7844758525e+18 5.8217278041e+18 5.4865490099e+18
          3.458190372e+19 3.5726229889e+19 3.7003577904e+19 3.8633584599e+19 4.0449900797e+19 4.2257533478e+19
          4.4039733426e+19 4.5745014256e+19 4.7355647709e+19 4.8954195448e+19 5.120472919e+19 5.4190719151e+19
          5.6919421077e+19 5.9306203078e+19 6.1279599142e+19 6.3420918628e+19 6.6190743709e+19 6.8189068876e+19
          6.9246052608e+19 7.0751973163e+19 6.664016953e+19 5.2836397267e+19 3.8748999831e+19 2.9273997905e+19
          2.2969393039e+19 1.8390915584e+19 1.4932951574e+19 1.2057469063e+19 1.0319924558e+19 9.1508985056e+18
          8.4584780824e+18 8.0796952295e+18 7.4043790342e+18 6.4714644547e+18 5.4114241728e+18 5.0496592986e+18
          3.4032235168e+19 3.5066169754e+19 3.6274002564e+19 3.7892602758e+19 3.9763895888e+19 4.1652652452e+19
          4.3507687963e+19 4.5297173312e+19 4.7014091048e+19 4.8727559204e+19 5.1158777555e+19 5.438041865e+19
          5.7330614845e+19 5.9925171823e+19 6.2079418237e+19 6.4451705452e+19 6.7534070977e+19 6.9874029335e+19
          7.1163616668e+19 7.2949469685e+19 6.8001468592e+19 5.2703237554e+19 3.7838583809e+19 2.8040047985e+19
          2.181594486e+19 1.7499579767e+19 1.4280868539e+19 1.1569297784e+19 9.9184530938e+18 8.7908282652e+18
          8.1040993365e+18 7.7332201297e+18 7.0937249414e+18 6.1475777255e+18 4.9914059737e+18 4.5705053626e+18
          2.7560302068e+19 2.857205391e+19 2.9934143739e+19 3.1882758303e+19 3.4160774161e+19 3.6389654134e+19
          3.8504038534e+19 4.0517858309e+19 4.2428625362e+19 4.4324056845e+19 4.6998602713e+19 5.0479606045e+19
          5.3643765224e+19 5.6435260197e+19 5.8789495669e+19 6.1429077823e+19 6.4944195579e+19 6.7724314924e+19
          6.9453934982e+19 7.2017805302e+19 6.7248928566e+19 5.1067001702e+19 3.5698352327e+19 2.5919729241e+19
          2.0096323053e+19 1.6253069843e+19 1.3419214526e+19 1.0964159562e+19 9.4406612248e+18 8.3402155362e+18
          7.661455105e+18 7.2913144734e+18 6.6977393088e+18 5.7766272085e+18 4.501222078e+18 3.9451454749e+18
          1.5144328561e+19 1.6508019744e+19 1.8450413724e+19 2.1050784593e+19 2.3833643894e+19 2.6364211659e+19
          2.864171914e+19 3.0728991038e+19 3.2644250801e+19 3.448543736e+19 3.7005190109e+19 4.0169751055e+19
          4.2894021262e+19 4.5195274559e+19 4.7017044714e+19 4.891918695e+19 5.1339597606e+19 5.3301049954e+19
          5.4447745334e+19 5.5939854716e+19 5.1137160125e+19 3.8714068048e+19 2.767190231e+19 2.074635669e+19
          1.6966953714e+19 1.4352309443e+19 1.2282721124e+19 1.0213379134e+19 8.8622306881e+18 7.8062440172e+18
          7.1203013104e+18 6.7182015342e+18 6.1885619876e+18 5.2950907094e+18 3.8451177632e+18 2.8340423607e+18
        </DataArray>
        <DataArray type="Float64" Name="ions_0_temperature" format="ascii" RangeMin="0.49474485775" RangeMax="44.293077461">
          2.018943551 2.6669427243 3.4154319858 4.2927662051 5.2242932263 6.1514954888
          7.0698362959 7.9833397218 8.9028285645 9.8716423746 11.14107868 12.719115134
          14.41324924 16.248469631 18.296559091 21.317227364 26.35542779 31.575209663
          42.794763226 44.293077461 41.71212309 37.56904561 33.06408408 27.764313855
          22.53719398 17.756080272 14.059003812 11.225546979 8.9610026126 6.9114991317
          5.0498947923 3.5010187114 2.4173875234 1.7306979537 1.3072192561 1.1091797236
          2.0171324556 2.66101247 3.414018793 4.2990835072 5.2315623178 6.1604776521